#      face_x        face_y        face_z           CO2
     0.748539      0.857538      0.756497       277.023
     0.557814      0.747833      0.853327       310.447
     0.257991       0.96662      0.855041       278.321
     0.257794       0.96429      0.903364       309.516
     0.612926       1.00811      0.954911        296.24
     0.312852       1.05816        1.0564       294.611
     0.313318      0.859674       1.15537       288.283
     0.311458       1.05658       1.20625       302.796
     0.557745       0.89419       0.75114       307.517
     0.251533      0.842823      0.793507       294.349
     0.550632      0.844108      0.793936       302.628
     0.742187      0.851435      0.754611       285.698
     0.551473      0.893068      0.757303       294.121
     0.257843       0.95084       0.79388       310.566
     0.251533      0.957177      0.793507        294.34
     0.442011       1.09369      0.804892       279.421
     0.257841      0.750643      0.845653       310.873
         0.85      0.743755       0.84373       300.461
      0.25152      0.757168      0.845171       294.858
     0.387032      0.757376      0.845008       290.688
     0.742189      0.813446      0.804762       299.166
     0.742168      0.886074      0.841342       307.002
      0.25152       1.04283      0.845171       294.876
     0.387025      0.695481      0.857748       292.675
     0.551509      0.742262      0.855498       293.719
     0.257991       0.83338      0.855041       278.325
     0.850606      0.844184      0.892693       292.975
     0.442181      0.937768       0.89121       316.425
     0.912805      0.943511      0.857973       287.483
     0.913038       1.14399       0.89569       283.259
     0.387023      0.644593      0.944683       286.605
     0.556871      0.699653      0.945171       305.819
     0.687042      0.694287      0.945339       275.443
     0.550766       0.70684      0.943642       296.774
     0.387144       0.75756      0.905371       290.557
     0.557779      0.794387      0.952241       310.241
     0.257794       0.83571      0.903364       309.549
     0.851527      0.844176      0.903931       288.373
     0.910977       1.14409      0.943675       292.901
     0.911692       1.15509      0.943849       288.964
     0.386903      0.654712      0.993903       285.903
     0.688563      0.656299      0.994548       287.764
     0.551473      0.744246      0.993007       294.263
     0.689601      0.706093      0.956533       291.502
     0.857767      0.740785       1.00021       305.669
     0.551516       0.79322      0.958079       295.371
     0.687072      0.693273        1.0423        274.17
     0.851544      0.741663       1.00668        291.85
     0.611332       1.14507       1.04367       293.585
     0.611317        1.1553       1.04358       295.667
     0.687085      0.657312       1.09436       274.035
     0.495292      0.751244       1.05703       301.024
     0.386886      0.796112       1.05931       286.247
     0.912882       1.09175        1.0922       285.403
     0.611731       1.14388       1.09284       297.031
     0.912894       1.14246       1.05465       288.993
     0.686519      0.743018       1.14523        272.29
     0.689295      0.806348       1.14399       298.054
     0.495328      0.950399        1.1065       309.926
     0.612945      0.944867       1.14287       283.454
     0.310628       1.09398       1.10627       311.057
     0.612617       1.14314       1.10383       297.024
     0.688924      0.743857       1.15656       290.708
     0.795272      0.891955       1.16268       309.177
     0.804728      0.891955       1.16268       307.488
     0.311411      0.992369        1.1939       303.498
     0.311756       1.05676       1.19506       297.916
     0.312502      0.894726       1.20545       298.607
     0.795214      0.863849       1.24574       303.342
     0.804786      0.863849       1.24574       299.806
     0.313066      0.945485       1.24198       295.247
     0.795272      0.935403       1.20719       305.856
     0.804728      0.935403       1.20719       304.127
     0.311597      0.957384       1.24295       303.706
     0.266289      0.916437       0.76047       313.902
         0.75      0.968454       0.75598       289.303
     0.748267      0.968768      0.766286       279.111
     0.748463       1.01788       0.75756       261.726
     0.749356       1.00581      0.768134       266.202
     0.748562      0.819898      0.806476       276.693
      0.91875       1.00324      0.815161       282.536
     0.912967       1.00533      0.819908        287.38
     0.566202       0.74779      0.853612       309.697
     0.266189      0.966621      0.855045       277.587
     0.257861      0.763981      0.917751       308.485
     0.374667      0.757497      0.905367       297.743
     0.566241      0.760954      0.916255       308.633
     0.374928      0.807347      0.917673       289.078
     0.266201       0.96437      0.903532       308.487
      0.91875       1.01894      0.893224       250.301
      0.67188      0.705903      0.956575       304.431
     0.612941        1.0586      0.966908       295.086
         0.45       1.01863       1.00653        304.18
     0.804767       1.05631       1.02612        307.74
      0.31875       1.10848       1.01627       278.128
     0.312817       1.10405       1.01797       292.714
     0.449391       1.10475       1.01903       294.374
     0.617247       1.11711      0.997424       282.021
     0.910705       1.11886       1.00633        293.01
     0.374779      0.805665       1.11755       297.019
     0.672711      0.856324       1.11909       302.244
     0.809835      0.867726       1.11818       285.592
      0.31875      0.910704       1.11883       279.698
     0.312877      0.904916       1.11853       292.963
     0.610629      0.968756       1.10635       304.927
     0.804742       1.02469       1.10678       300.552
      0.91875       1.01967       1.10631       223.129
     0.913654       1.01959       1.10289       258.845
      0.31875       1.07766       1.11786       283.773
      0.61875       1.14844       1.10274       292.519
     0.671711      0.818751       1.16879       308.796
     0.804764       1.02617       1.17037       300.746
      0.31875       1.07682       1.16841       273.438
     0.674715      0.768605       1.20505       292.373
     0.505086      0.924693       1.21678        301.05
         0.81      0.918227       1.21834       282.525
     0.313691       1.05609       1.21647       285.397
     0.557801      0.783913      0.752575       308.999
     0.566195      0.783994      0.752597       305.092
     0.566207      0.894207      0.751151       308.687
     0.551481      0.732366      0.793432       292.327
     0.557769      0.726582      0.791968       308.347
     0.566169      0.726614      0.791879       305.746
     0.551562      0.782512      0.757904       292.259
         0.55      0.781558      0.768802       301.986
     0.550776      0.781011      0.780521       291.738
      0.55697      0.781685      0.787587       312.649
     0.551485      0.832127      0.792677       293.919
     0.733835      0.851465      0.754593       301.988
     0.250807       0.88138      0.754792       293.935
     0.266289      0.883563       0.76047       313.931
     0.550634      0.880991      0.756089       302.758
     0.266168       0.95085       0.79395       308.415
     0.433831      0.930896      0.788128       309.121
         0.25      0.968881      0.793725       309.131
     0.433817        1.0937      0.804893       279.246
      0.38125      0.696646      0.852673        302.85
      0.26619      0.750732      0.845453       308.832
     0.374796      0.757272       0.84501       296.638
     0.733827      0.813461      0.804824       304.959
     0.550633      0.894199      0.831575       300.444
     0.551476      0.882108       0.83067       293.068
     0.557733      0.881345      0.837302       306.603
     0.733799      0.886057      0.841401       306.039
      0.91875      0.942288      0.853012       267.902
     0.442194       1.03322      0.835486       305.544
     0.910454       1.00645      0.831373       303.998
     0.374805      0.695363      0.857743       301.043
         0.55      0.693964      0.881234       307.464
     0.551728      0.682369      0.891976       290.538
     0.550699      0.682653      0.879818       292.441
     0.557933      0.676311      0.890631       288.013
     0.566229      0.676524      0.890794       284.035
         0.85      0.682208      0.868984         297.4
     0.851715      0.733348      0.866122       280.079
     0.742175      0.801453      0.876985       312.817
     0.733746       0.80174      0.877534       310.586
      0.85174       0.79496      0.867234       278.215
     0.251744      0.828444      0.854821       289.331
     0.266189      0.833379      0.855045        277.59
     0.374822      0.830192      0.869242       295.616
     0.371728      0.818694      0.893791       308.932
         0.39      0.818751      0.893748       310.827
      0.55784      0.901975      0.883202       308.759
     0.566177       0.90199      0.883251       306.808
     0.733625      0.862705      0.883616        311.74
         0.85      0.856768      0.881343        296.48
     0.433794      0.937756      0.891247       315.597
         0.55      0.943675      0.868588       304.187
     0.551572      0.907561      0.881722       289.676
         0.55      0.918984      0.881632       300.484
         0.25      0.981658      0.855477       308.865
     0.910401      0.956387      0.881138       306.721
      0.61875       1.01624      0.890732       296.276
     0.612974       1.01723      0.895482       296.303
     0.913659       1.01825      0.890052       281.536
     0.617267       1.08262       0.90245       282.714
     0.913662       1.08124      0.890225       276.485
     0.374857      0.644642      0.944518        298.19
     0.851544       0.64522      0.917372       289.928
     0.866185      0.639723      0.918395       302.936
      0.56636      0.699715      0.945326       305.807
     0.674872      0.694123      0.945384       290.932
     0.566186      0.794434       0.95227       309.614
      0.68125      0.766523      0.927117       253.616
     0.675931      0.767807       0.93172       270.751
     0.251515      0.829974      0.905367       295.494
     0.266201       0.83563      0.903532       308.529
     0.386973      0.807459       0.91769       290.914
         0.25      0.981444      0.906302       309.284
     0.251552       1.02995      0.917143       294.377
     0.257861       1.03602      0.917751       308.538
     0.611295       1.08134      0.907394       298.238
         0.61       1.06875      0.943743        312.32
     0.618745       1.14179      0.928525       284.326
     0.613125         1.143      0.933438       288.906
     0.911666       1.13179       0.90566       283.576
     0.913184       1.13441      0.943571       275.367
      0.68125      0.652152      0.983822       290.111
      0.37494      0.654653      0.993763       295.827
      0.67368      0.655327      0.995096       299.304
     0.674887      0.656666        0.9828       298.289
     0.687424      0.657252      0.983142       280.776
     0.673648      0.732269      0.992442       296.223
     0.688563      0.731223      0.993061       276.094
     0.866198       0.74084       1.00023       302.112
         0.55      0.781346       0.96914       310.766
     0.672892      0.781278      0.968441       300.676
      0.67598      0.781762      0.980177       281.138
     0.311144       1.04289      0.981382       306.136
     0.433826       1.01619      0.990528       306.804
         0.61       1.13125      0.956257       309.929
     0.611296       1.11861      0.992566       296.309
     0.917268       1.11647      0.990977       272.151
     0.911657       1.11895      0.995042       278.699
      0.38125      0.691788       1.03045       254.955
     0.376165      0.690509       1.03371       284.611
     0.386875      0.691784       1.03434       283.878
      0.67188      0.681565       1.03098       305.551
     0.674826      0.693421       1.04225       292.073
     0.674805      0.731008       1.00514       297.709
      0.68747      0.730344       1.00479       271.042
      0.68125      0.735512       1.00434       284.768
     0.850586      0.729812       1.00666       295.268
      0.38125      0.796379       1.05519       256.809
     0.851577      0.782533       1.02051       293.135
         0.85      0.781529       1.03148        306.41
     0.857817      0.784192       1.01523       313.657
     0.310394        1.0317       1.00628        311.66
     0.795233       1.05631       1.02612       310.199
     0.910405       1.06887       1.04378       297.652
      0.68125      0.651884       1.09491       284.408
     0.370859      0.681882       1.08126       315.163
     0.371918      0.681828       1.09399       310.793
     0.389531      0.681026       1.09348       304.992
     0.674766      0.657344       1.09424        291.91
     0.674971      0.678259       1.09474       290.445
     0.686859      0.678251       1.09491        274.07
      0.68125      0.682195        1.0961       253.369
     0.851615       0.69496       1.06698       285.869
      0.37473      0.744159       1.06945       294.788
      0.38125      0.746392       1.06442        285.77
     0.387609      0.744785       1.06991       292.081
     0.371081      0.743295       1.08129       314.086
         0.39      0.743715        1.0814       308.853
     0.376167      0.797519       1.05867       285.392
         0.49      0.781252       1.06875       305.076
         0.51      0.781252       1.06875       299.776
     0.851549      0.768735       1.08023       290.058
     0.857842      0.768096       1.08646       306.858
     0.611531      0.967496       1.09431       299.679
      0.61875      0.977799       1.08904       284.018
     0.612987       0.97938       1.09446       293.019
     0.910959       1.01907       1.09329       283.307
      0.61875       1.08477       1.10309       294.426
     0.618728       1.13211       1.07961       258.187
     0.374729      0.679427        1.1045       299.965
      0.38125      0.676989        1.1091       290.034
     0.387085      0.679345       1.10449       290.171
     0.674864      0.680897       1.14252       293.524
     0.686974      0.681018       1.14259       277.811
     0.374786       0.73285       1.12964       297.148
      0.49513      0.726461       1.12765       309.792
     0.490164      0.732721        1.1295        294.18
      0.50487      0.726461       1.12765       304.436
     0.509836      0.732721        1.1295        289.17
     0.675981      0.743019       1.14523       280.742
         0.49      0.781227       1.13125       308.893
         0.51      0.781227       1.13125       297.793
     0.795479      0.803731       1.12936       269.938
     0.804521      0.803731       1.12936       262.722
     0.387082      0.805538       1.11758       291.361
     0.681251      0.803488       1.12956       286.719
      0.67294      0.805858       1.14422       304.585
     0.675985      0.804895       1.13333       283.831
     0.686974      0.805472       1.13336       280.711
     0.310466      0.869574       1.14419       310.191
     0.310401      0.893476       1.13098       311.864
     0.688555      0.856409       1.11912       293.763
     0.671831      0.869009       1.13114       307.801
     0.673685      0.881726       1.14304       299.577
     0.688167      0.881628       1.14308       288.964
     0.790165      0.867726       1.11818       284.372
     0.610401      0.956094       1.13107       303.025
     0.795258       1.02469       1.10678       303.922
     0.612975       1.08287       1.10785        295.29
     0.672895       0.74382        1.1566       301.735
      0.67464      0.830731       1.19271       294.616
     0.687201      0.830621       1.19275        281.82
     0.795133       0.82567       1.19571       293.919
     0.804867       0.82567       1.19571       277.499
     0.674779      0.880251       1.15567       297.688
     0.687106      0.880307       1.15549       282.386
      0.68125      0.885073       1.15549       281.261
     0.790009      0.880492       1.16822         296.2
     0.809991      0.880492       1.16822       261.353
     0.490421       1.01644       1.17887       290.149
     0.509579       1.01644       1.17887       276.796
      0.61297       1.00789       1.17969       292.806
      0.61875       1.00852        1.1847       292.259
     0.795236       1.02617       1.17037       302.516
     0.790162       1.03233       1.16898       284.951
     0.809838       1.03233       1.16898       275.472
      0.68125      0.768898        1.2104       276.913
     0.687147      0.768468        1.2051       280.641
     0.494914      0.924693       1.21678       302.493
     0.490154      0.931887       1.21881         291.9
     0.509846      0.931887       1.21881       280.867
         0.79      0.918227       1.21834       305.447
     0.490162      0.980539       1.23122       292.808
     0.495251      0.987443        1.2321       304.405
     0.509838      0.980539       1.23122       285.525
     0.504749      0.987443        1.2321       297.827
     0.795243      0.980062       1.22727       282.891
     0.790195      0.980725       1.23337       281.257
     0.804757      0.980062       1.22727       281.648
     0.809805      0.980725       1.23337       267.668
        0.558      0.856792      0.715111       277.356
         0.75       1.00625      0.706265       283.317
     0.556887      0.709912      0.753938       332.667
     0.256669      0.764109       0.75772       279.994
         0.75      0.906243      0.756256       292.807
         0.75      0.955768      0.756374       285.372
         0.45       1.00832      0.756804       282.789
         0.75       1.00578       0.75598       268.244
      0.55829      0.808469      0.795297       261.232
     0.256807      0.852479      0.808922       332.408
         0.75       0.85625       0.80625       297.739
         0.45      0.906288      0.806445       294.835
         0.75      0.905788      0.805969       288.728
         0.45      0.956246      0.806247       303.926
     0.911651      0.957722      0.806817       280.199
         0.45       1.00625      0.806254       303.261
     0.257084       1.05253      0.809286       322.189
         0.45        1.0562       0.80624       293.408
         0.75       1.05625      0.806267       289.307
     0.448551       1.10751      0.809123       275.949
     0.748875       1.10387      0.806898       258.369
     0.911601       1.10545      0.808658        272.51
         0.45       1.15612      0.806185       296.934
     0.557509      0.756839       0.86229       278.109
         0.75      0.806442      0.856163       285.831
         0.75      0.856198      0.856198       297.175
         0.45      0.906292      0.856266       304.287
      0.91383      0.908677      0.858668       262.376
     0.449329      0.955735      0.855596       289.559
     0.911571      0.956027      0.856179       299.478
     0.448116       1.00611      0.855193       283.879
     0.748835       1.00809      0.856104       260.556
      0.91022       1.00605      0.856206       307.134
         0.75       1.05625       0.85625       283.503
         0.91       1.05625       0.85625       304.265
     0.449237       1.10659      0.855147       281.867
         0.91        1.1062      0.856258       295.134
     0.858334      0.608631      0.896833       276.178
         0.75      0.806872      0.906029       274.091
       0.2583       0.85403      0.915471       261.118
         0.75      0.856292      0.906216       290.982
         0.45      0.906232       0.90623       301.352
      0.91263       0.90799      0.905992       282.806
     0.257502      0.955673      0.912759       272.718
     0.911231      0.955239      0.905667        295.51
     0.610693       1.00521      0.906753       306.448
     0.748791       1.00785      0.907614       270.565
     0.256336       1.05433      0.901992       335.694
         0.61       1.05619      0.906289       310.229
         0.75       1.05626      0.906253       280.209
     0.912759        1.0562      0.902811       274.495
     0.449154       1.10783      0.906542       278.649
     0.610007       1.10619      0.907031       302.792
         0.45       1.15505      0.906733       289.424
         0.91       1.15625      0.906565       303.576
         0.91       1.20619      0.906178       306.603
     0.856868      0.706084      0.962775       284.637
      0.55736      0.847293      0.959155       271.738
     0.558058      0.906349      0.947049       272.162
         0.61       0.95896      0.956219       295.666
         0.75      0.956837      0.956669       283.839
     0.913879      0.954491       0.95484       274.507
     0.311602        1.0068      0.958361       281.756
         0.75       1.00627      0.956291       291.454
     0.610431        1.0576      0.956414       310.786
      0.74858        1.0568      0.954862       258.983
         0.45       1.10625      0.956257       302.339
         0.61       1.10625       0.95625       310.896
     0.449325        1.1557      0.955994       288.261
         0.61       1.15619      0.956291       306.701
     0.912683       1.15475      0.957267       285.133
     0.857058       0.61355       1.00552       269.676
     0.556354      0.706754       1.00006       298.452
     0.505023      0.805732       1.01536       277.391
     0.858341       0.84751        1.0084       267.013
     0.312694      0.958374       1.00753       287.107
      0.44804      0.958747       1.00527       275.894
     0.804612      0.961169       1.01189       316.553
     0.913857       0.95879        1.0088       267.263
         0.31       1.00625       1.00592       312.523
         0.45       1.00625       1.00654       304.352
         0.31       1.05625       1.00626       314.132
         0.45       1.05626       1.00627       305.301
     0.804895       1.04936       1.00649       288.477
     0.312472       1.10396       1.00587        293.53
         0.45       1.10581       1.00653       303.729
     0.910481       1.10671       1.00633       296.483
         0.61       1.15579        1.0061       301.308
         0.91       1.15615       1.00629       296.401
     0.856546       0.66308       1.05484       279.317
     0.312727      0.906056       1.05819       289.775
     0.504734      0.914339       1.05852       277.103
     0.804467      0.897892       1.05849       272.506
         0.61      0.954737       1.05723       287.884
     0.911461      0.958074       1.05662       279.544
         0.45       1.00652       1.05566       296.816
     0.910681       1.00583       1.05675       291.323
         0.91       1.05626       1.05627       297.461
         0.31       1.10621       1.05626       313.238
     0.448034       1.10509       1.05494       273.733
         0.91       1.10624       1.05624       303.072
         0.61       1.15641       1.05643       302.731
     0.912528       1.15648        1.0538       285.232
     0.612672       1.20529       1.05771       285.484
     0.504967      0.710294       1.10291       317.022
     0.857069       0.71008       1.10323       318.415
     0.857287      0.804271       1.09808       266.918
         0.31      0.856957        1.1065       305.513
     0.311311      0.905141       1.10613       300.729
     0.612719      0.909455       1.10735       280.909
     0.610229      0.956207       1.10623       304.805
     0.612569        1.0071       1.10645       297.199
     0.804448       1.00978       1.09581       255.848
     0.911732       1.00553       1.10306        263.06
     0.312863       1.05917       1.10449       282.978
         0.61       1.05642       1.10692       306.123
         0.91       1.05635       1.10607       291.504
     0.310232       1.10613       1.10609       313.912
     0.611301       1.10536       1.10593       303.285
     0.310027       1.15458       1.10565       298.988
     0.612619       1.20627       1.10465       293.873
     0.504754      0.714451       1.15459       274.977
         0.31      0.906226       1.15626       313.285
     0.804257       0.90412       1.16877       248.031
     0.612438      0.957892       1.15636       287.436
      0.61024       1.00599       1.15608       307.676
     0.804726       1.01082       1.15315       313.056
     0.504905       1.05118       1.15324       321.778
         0.61       1.05621       1.15618       310.065
         0.31       1.10553       1.15493         300.9
         0.61        1.1062       1.15623       309.579
     0.805395       1.10547       1.15994         321.6
         0.31      0.859218       1.20328       285.063
     0.311158      0.906804       1.20617       305.959
         0.31       0.95625       1.20625       314.323
     0.804237      0.953786       1.21731       250.164
         0.31       1.00617       1.20648       312.096
     0.804917       1.01311       1.20643       287.379
         0.31       1.10569        1.2068       305.107
     0.804955       1.10271       1.20199        308.06
     0.504491      0.758564       1.24707       265.237
     0.505009       0.80611        1.2498       298.482
     0.804885      0.865901       1.25775        271.89
     0.312531      0.959409       1.25494       288.461
     0.311425        1.0064       1.25553       300.406
     0.503805      0.995877       1.25622        244.83
     0.311594        1.1072       1.25413       286.618
     0.504444      0.816806       1.30634       270.053
        0.805       1.04834       1.30586       282.987
     0.504476      0.853618       1.34708       267.155
     0.251979      0.895177      0.646347       276.938
     0.251966       0.90491      0.646377       276.746
         0.25       0.89416      0.656832         297.9
         0.25      0.894156       0.69375       304.521
         0.25      0.905844       0.69375       304.519
     0.742688       1.00851      0.664922       268.457
     0.742063       1.03719      0.693743       283.989
     0.558355      0.702908      0.741598       267.565
     0.551856      0.708469      0.742515       279.198
         0.55      0.743637      0.743865        305.52
     0.556456       0.74165      0.709193       326.345
         0.25      0.794233      0.744959       295.164
         0.55      0.755919      0.744089       300.476
     0.557786      0.799306        0.7493       321.559
         0.25      0.806303      0.744207       301.927
         0.25      0.843566      0.744784       297.897
     0.551655      0.807558      0.746317       276.813
         0.55      0.843846      0.743882       305.444
     0.558353      0.846767      0.717698       255.856
     0.742097      0.853097      0.742977       269.585
         0.25       0.89415      0.706255       304.672
     0.250846      0.856579      0.745096       291.366
         0.25      0.893756      0.743409       305.495
         0.55       0.85624      0.743806        308.17
     0.556385      0.887284      0.742077       284.512
     0.742952      0.893072       0.71418       274.051
         0.25      0.906244      0.743409       305.495
     0.250846      0.943421      0.745096        291.37
      0.74167      0.904114      0.715143       260.427
     0.442614       1.00332      0.747141       263.607
         0.25       1.00577      0.744959        295.14
     0.442808       1.03939      0.748963       317.604
     0.742014       1.03633      0.705898       278.227
     0.857184       0.69888      0.798169       317.046
         0.55      0.743755      0.756258       307.424
         0.55      0.743844      0.793266       302.748
     0.851031      0.707578      0.795099       280.334
         0.85      0.742827       0.79443       289.197
         0.25      0.793919      0.756518       304.168
         0.25      0.793863      0.793303        309.24
     0.551292       0.79579      0.758376       283.787
     0.550722      0.756537      0.793085       295.858
     0.556784      0.796131      0.789897       330.231
         0.85      0.793799      0.794414       289.915
         0.25      0.843688      0.756443       306.216
         0.25      0.806261      0.793752       311.493
         0.55      0.843754      0.756257       309.242
     0.551902      0.807402      0.790822       278.389
     0.743521      0.842445      0.762958       264.874
     0.743114      0.815175      0.792414       278.594
     0.850943      0.806287      0.793758       285.097
     0.851048       0.84494      0.796508       268.931
     0.251605      0.894723      0.753643       286.889
     0.257851      0.854354      0.784434       260.848
         0.55      0.856292      0.793734        309.62
         0.55       0.89375       0.79375       310.742
         0.85      0.855988      0.796232       274.113
         0.25      0.943854      0.756427       303.097
     0.257851      0.945646      0.784434       260.847
     0.442644      0.946637      0.765268       268.631
         0.55       0.90623      0.793757        309.58
      0.55742      0.934117      0.760045       270.728
     0.556321       0.94492      0.799346       301.036
     0.557754      0.938119      0.793297       301.921
         0.25       0.99372       0.75634       308.277
         0.25      0.993739      0.793752       311.473
     0.443628       0.95627      0.763666       287.583