#      face_x        face_y        face_z           CO2
     0.748539      0.857538      0.756497       277.558
     0.557814      0.747833      0.853327       310.444
     0.257991       0.96662      0.855041       278.317
     0.257794       0.96429      0.903364       309.516
     0.612926       1.00811      0.954911       296.253
     0.312852       1.05816        1.0564       294.607
     0.313318      0.859674       1.15537       288.281
     0.311458       1.05658       1.20625       302.792
     0.557745       0.89419       0.75114       307.514
     0.251533      0.842823      0.793507       294.363
     0.550632      0.844108      0.793936       302.632
     0.742187      0.851435      0.754611       286.318
     0.551473      0.893068      0.757303       294.121
     0.257843       0.95084       0.79388       310.565
     0.251533      0.957177      0.793507       294.337
     0.442011       1.09369      0.804892       279.413
     0.257841      0.750643      0.845653       310.875
         0.85      0.743755       0.84373        301.76
      0.25152      0.757168      0.845171        294.86
     0.387032      0.757376      0.845008       290.702
     0.742189      0.813446      0.804762       299.206
     0.742168      0.886074      0.841342       306.963
      0.25152       1.04283      0.845171       294.874
     0.387025      0.695481      0.857748       292.672
     0.551509      0.742262      0.855498       293.717
     0.257991       0.83338      0.855041       278.324
     0.850606      0.844184      0.892693       292.779
     0.442181      0.937768       0.89121       316.414
     0.912805      0.943511      0.857973       287.271
     0.913038       1.14399       0.89569       282.994
     0.387023      0.644593      0.944683        286.57
     0.556871      0.699653      0.945171       305.814
     0.687042      0.694287      0.945339       275.307
     0.550766       0.70684      0.943642        296.77
     0.387144       0.75756      0.905371       290.652
     0.557779      0.794387      0.952241       310.239
     0.257794       0.83571      0.903364        309.56
     0.851527      0.844176      0.903931       287.977
     0.910977       1.14409      0.943675       292.516
     0.911692       1.15509      0.943849       288.654
     0.386903      0.654712      0.993903       285.814
     0.688563      0.656299      0.994548       287.573
     0.551473      0.744246      0.993007       294.264
     0.689601      0.706093      0.956533       291.405
     0.857767      0.740785       1.00021       305.524
     0.551516       0.79322      0.958079       295.375
     0.687072      0.693273        1.0423       273.822
     0.851544      0.741663       1.00668       291.693
     0.611332       1.14507       1.04367       293.586
     0.611317        1.1553       1.04358        295.67
     0.687085      0.657312       1.09436       273.992
     0.495292      0.751244       1.05703       301.011
     0.386886      0.796112       1.05931       286.239
     0.912882       1.09175        1.0922       284.684
     0.611731       1.14388       1.09284        297.01
     0.912894       1.14246       1.05465       289.587
     0.686519      0.743018       1.14523       272.155
     0.689295      0.806348       1.14399       297.954
     0.495328      0.950399        1.1065       309.916
     0.612945      0.944867       1.14287       283.372
     0.310628       1.09398       1.10627       311.054
     0.612617       1.14314       1.10383        296.99
     0.688924      0.743857       1.15656       290.922
     0.795272      0.891955       1.16268       309.076
     0.804728      0.891955       1.16268       307.382
     0.311411      0.992369        1.1939       303.495
     0.311756       1.05676       1.19506       297.912
     0.312502      0.894726       1.20545       298.605
     0.795214      0.863849       1.24574       303.339
     0.804786      0.863849       1.24574       299.944
     0.313066      0.945485       1.24198       295.245
     0.795272      0.935403       1.20719       305.889
     0.804728      0.935403       1.20719       304.207
     0.311597      0.957384       1.24295       303.703
     0.266289      0.916437       0.76047       313.905
         0.75      0.968454       0.75598       289.067
     0.748267      0.968768      0.766286       278.829
     0.748463       1.01788       0.75756       268.595
     0.749356       1.00581      0.768134       268.385
     0.748562      0.819898      0.806476       276.724
      0.91875       1.00324      0.815161       282.251
     0.912967       1.00533      0.819908       287.245
     0.566202       0.74779      0.853612        309.69
     0.266189      0.966621      0.855045       277.583
     0.257861      0.763981      0.917751       308.482
     0.374667      0.757497      0.905367       297.735
     0.566241      0.760954      0.916255        308.64
     0.374928      0.807347      0.917673       289.028
     0.266201       0.96437      0.903532       308.486
      0.91875       1.01894      0.893224       250.251
      0.67188      0.705903      0.956575       304.346
     0.612941        1.0586      0.966908       295.092
         0.45       1.01863       1.00653       304.214
     0.804767       1.05631       1.02612       307.739
      0.31875       1.10848       1.01627       278.124
     0.312817       1.10405       1.01797       292.712
     0.449391       1.10475       1.01903       294.673
     0.617247       1.11711      0.997424       282.044
     0.910705       1.11886       1.00633        294.75
     0.374779      0.805665       1.11755       297.021
     0.672711      0.856324       1.11909         302.2
     0.809835      0.867726       1.11818       285.792
      0.31875      0.910704       1.11883       279.694
     0.312877      0.904916       1.11853       292.959
     0.610629      0.968756       1.10635       304.898
     0.804742       1.02469       1.10678       300.302
      0.91875       1.01967       1.10631       219.899
     0.913654       1.01959       1.10289        257.42
      0.31875       1.07766       1.11786       283.769
      0.61875       1.14844       1.10274        292.49
     0.671711      0.818751       1.16879       308.733
     0.804764       1.02617       1.17037       299.927
      0.31875       1.07682       1.16841       273.435
     0.674715      0.768605       1.20505       292.321
     0.505086      0.924693       1.21678       301.072
         0.81      0.918227       1.21834       283.226
     0.313691       1.05609       1.21647       285.395
     0.557801      0.783913      0.752575       308.954
     0.566195      0.783994      0.752597       305.036
     0.566207      0.894207      0.751151       308.682
     0.551481      0.732366      0.793432       292.284
     0.557769      0.726582      0.791968       308.312
     0.566169      0.726614      0.791879       305.703
     0.551562      0.782512      0.757904       292.195
         0.55      0.781558      0.768802       301.899
     0.550776      0.781011      0.780521        291.63
      0.55697      0.781685      0.787587       312.556
     0.551485      0.832127      0.792677       293.928
     0.733835      0.851465      0.754593       302.096
     0.250807       0.88138      0.754792       293.949
     0.266289      0.883563       0.76047       313.948
     0.550634      0.880991      0.756089       302.757
     0.266168       0.95085       0.79395       308.413
     0.433831      0.930896      0.788128       309.108
         0.25      0.968881      0.793725       309.127
     0.433817        1.0937      0.804893       279.238
      0.38125      0.696646      0.852673       302.848
      0.26619      0.750732      0.845453       308.834
     0.374796      0.757272       0.84501       296.631
     0.733827      0.813461      0.804824       304.975
     0.550633      0.894199      0.831575       300.402
     0.551476      0.882108       0.83067       293.031
     0.557733      0.881345      0.837302       306.559
     0.733799      0.886057      0.841401        306.02
      0.91875      0.942288      0.853012       267.623
     0.442194       1.03322      0.835486       305.513
     0.910454       1.00645      0.831373       303.878
     0.374805      0.695363      0.857743       301.041
         0.55      0.693964      0.881234       307.458
     0.551728      0.682369      0.891976       290.531
     0.550699      0.682653      0.879818       292.435
     0.557933      0.676311      0.890631       288.002
     0.566229      0.676524      0.890794       283.959
         0.85      0.682208      0.868984       297.013
     0.851715      0.733348      0.866122       279.434
     0.742175      0.801453      0.876985       312.694
     0.733746       0.80174      0.877534       310.477
      0.85174       0.79496      0.867234       279.029
     0.251744      0.828444      0.854821       289.329
     0.266189      0.833379      0.855045       277.589
     0.374822      0.830192      0.869242        295.61
     0.371728      0.818694      0.893791       308.916
         0.39      0.818751      0.893748       310.843
      0.55784      0.901975      0.883202        308.67
     0.566177       0.90199      0.883251       306.724
     0.733625      0.862705      0.883616       311.705
         0.85      0.856768      0.881343       296.494
     0.433794      0.937756      0.891247       315.586
         0.55      0.943675      0.868588       304.359
     0.551572      0.907561      0.881722       289.615
         0.55      0.918984      0.881632       300.338
         0.25      0.981658      0.855477       308.864
     0.910401      0.956387      0.881138       306.569
      0.61875       1.01624      0.890732       296.233
     0.612974       1.01723      0.895482       296.272
     0.913659       1.01825      0.890052       281.476
     0.617267       1.08262       0.90245       282.709
     0.913662       1.08124      0.890225        276.57
     0.374857      0.644642      0.944518       298.187
     0.851544       0.64522      0.917372       289.848
     0.866185      0.639723      0.918395       302.838
      0.56636      0.699715      0.945326       305.799
     0.674872      0.694123      0.945384       290.867
     0.566186      0.794434       0.95227       309.593
      0.68125      0.766523      0.927117       252.869
     0.675931      0.767807       0.93172       270.671
     0.251515      0.829974      0.905367       295.512
     0.266201       0.83563      0.903532       308.538
     0.386973      0.807459       0.91769       290.913
         0.25      0.981444      0.906302       309.285
     0.251552       1.02995      0.917143       294.379
     0.257861       1.03602      0.917751        308.54
     0.611295       1.08134      0.907394        298.23
         0.61       1.06875      0.943743       312.258
     0.618745       1.14179      0.928525       284.278
     0.613125         1.143      0.933438       288.854
     0.911666       1.13179       0.90566       283.684
     0.913184       1.13441      0.943571       275.189
      0.68125      0.652152      0.983822       290.078
      0.37494      0.654653      0.993763       295.822
      0.67368      0.655327      0.995096       299.266
     0.674887      0.656666        0.9828       298.262
     0.687424      0.657252      0.983142       280.673
     0.673648      0.732269      0.992442       296.178
     0.688563      0.731223      0.993061       275.915
     0.866198       0.74084       1.00023       301.976
         0.55      0.781346       0.96914       310.779
     0.672892      0.781278      0.968441       300.632
      0.67598      0.781762      0.980177       281.109
     0.311144       1.04289      0.981382       306.149
     0.433826       1.01619      0.990528       306.843
         0.61       1.13125      0.956257       309.888
     0.611296       1.11861      0.992566       296.293
     0.917268       1.11647      0.990977        271.95
     0.911657       1.11895      0.995042       279.935
      0.38125      0.691788       1.03045       254.953
     0.376165      0.690509       1.03371       284.609
     0.386875      0.691784       1.03434       283.851
      0.67188      0.681565       1.03098       305.538
     0.674826      0.693421       1.04225       292.104
     0.674805      0.731008       1.00514       297.681
      0.68747      0.730344       1.00479        270.86
      0.68125      0.735512       1.00434       284.756
     0.850586      0.729812       1.00666       295.084
      0.38125      0.796379       1.05519        256.81
     0.851577      0.782533       1.02051       293.042
         0.85      0.781529       1.03148         306.3
     0.857817      0.784192       1.01523       313.576
     0.310394        1.0317       1.00628       311.664
     0.795233       1.05631       1.02612       310.222
     0.910405       1.06887       1.04378       297.435
      0.68125      0.651884       1.09491       284.356
     0.370859      0.681882       1.08126       315.163
     0.371918      0.681828       1.09399       310.794
     0.389531      0.681026       1.09348       304.923
     0.674766      0.657344       1.09424       291.878
     0.674971      0.678259       1.09474       290.411
     0.686859      0.678251       1.09491       274.659
      0.68125      0.682195        1.0961        253.34
     0.851615       0.69496       1.06698       285.548
      0.37473      0.744159       1.06945       294.789
      0.38125      0.746392       1.06442        285.77
     0.387609      0.744785       1.06991       292.072
     0.371081      0.743295       1.08129       314.087
         0.39      0.743715        1.0814       308.838
     0.376167      0.797519       1.05867       285.394
         0.49      0.781252       1.06875       305.094
         0.51      0.781252       1.06875       299.728
     0.851549      0.768735       1.08023       290.007
     0.857842      0.768096       1.08646       306.878
     0.611531      0.967496       1.09431        299.65
      0.61875      0.977799       1.08904       283.991
     0.612987       0.97938       1.09446       292.979
     0.910959       1.01907       1.09329       282.318
      0.61875       1.08477       1.10309       294.453
     0.618728       1.13211       1.07961       258.168
     0.374729      0.679427        1.1045       299.965
      0.38125      0.676989        1.1091       290.034
     0.387085      0.679345       1.10449       290.119
     0.674864      0.680897       1.14252       293.506
     0.686974      0.681018       1.14259       277.641
     0.374786       0.73285       1.12964       297.149
      0.49513      0.726461       1.12765        309.72
     0.490164      0.732721        1.1295       294.171
      0.50487      0.726461       1.12765       304.566
     0.509836      0.732721        1.1295       289.186
     0.675981      0.743019       1.14523       280.668
         0.49      0.781227       1.13125       308.888
         0.51      0.781227       1.13125       297.696
     0.795479      0.803731       1.12936       273.194
     0.804521      0.803731       1.12936       269.927
     0.387082      0.805538       1.11758       291.325
     0.681251      0.803488       1.12956       286.688
      0.67294      0.805858       1.14422       304.492
     0.675985      0.804895       1.13333       283.787
     0.686974      0.805472       1.13336       280.739
     0.310466      0.869574       1.14419       310.188
     0.310401      0.893476       1.13098       311.859
     0.688555      0.856409       1.11912       293.641
     0.671831      0.869009       1.13114       307.616
     0.673685      0.881726       1.14304       299.503
     0.688167      0.881628       1.14308       289.161
     0.790165      0.867726       1.11818       283.524
     0.610401      0.956094       1.13107       302.947
     0.795258       1.02469       1.10678       303.844
     0.612975       1.08287       1.10785       295.316
     0.672895       0.74382        1.1566       301.652
      0.67464      0.830731       1.19271       294.594
     0.687201      0.830621       1.19275        282.31
     0.795133       0.82567       1.19571       293.211
     0.804867       0.82567       1.19571       276.256
     0.674779      0.880251       1.15567       297.648
     0.687106      0.880307       1.15549       282.635
      0.68125      0.885073       1.15549       281.224
     0.790009      0.880492       1.16822       296.112
     0.809991      0.880492       1.16822       260.043
     0.490421       1.01644       1.17887       290.147
     0.509579       1.01644       1.17887       276.615
      0.61297       1.00789       1.17969       292.793
      0.61875       1.00852        1.1847       292.208
     0.795236       1.02617       1.17037       301.788
     0.790162       1.03233       1.16898       283.744
     0.809838       1.03233       1.16898       274.394
      0.68125      0.768898        1.2104       276.811
     0.687147      0.768468        1.2051       280.434
     0.494914      0.924693       1.21678       302.495
     0.490154      0.931887       1.21881       291.885
     0.509846      0.931887       1.21881       281.058
         0.79      0.918227       1.21834       305.451
     0.490162      0.980539       1.23122       292.806
     0.495251      0.987443        1.2321       304.357
     0.509838      0.980539       1.23122       285.514
     0.504749      0.987443        1.2321       297.805
     0.795243      0.980062       1.22727       283.252
     0.790195      0.980725       1.23337       281.752
     0.804757      0.980062       1.22727       282.064
     0.809805      0.980725       1.23337       268.894
        0.558      0.856792      0.715111       277.343
         0.75       1.00625      0.706265       281.547
     0.556887      0.709912      0.753938       332.666
     0.256669      0.764109       0.75772       279.997
         0.75      0.906243      0.756256       292.711
         0.75      0.955768      0.756374       285.399
         0.45       1.00832      0.756804       283.007
         0.75       1.00578       0.75598       271.132
      0.55829      0.808469      0.795297       261.271
     0.256807      0.852479      0.808922       332.414
         0.75       0.85625       0.80625       297.585
         0.45      0.906288      0.806445       294.766
         0.75      0.905788      0.805969       288.417
         0.45      0.956246      0.806247       304.105
     0.911651      0.957722      0.806817       280.101
         0.45       1.00625      0.806254       303.057
     0.257084       1.05253      0.809286       322.187
         0.45        1.0562       0.80624        293.46
         0.75       1.05625      0.806267       289.763
     0.448551       1.10751      0.809123        275.93
     0.748875       1.10387      0.806898       258.618
     0.911601       1.10545      0.808658       272.448
         0.45       1.15612      0.806185       296.961
     0.557509      0.756839       0.86229       278.106
         0.75      0.806442      0.856163       285.281
         0.75      0.856198      0.856198       297.006
         0.45      0.906292      0.856266       304.126
      0.91383      0.908677      0.858668       262.154
     0.449329      0.955735      0.855596       289.627
     0.911571      0.956027      0.856179       299.286
     0.448116       1.00611      0.855193       283.898
     0.748835       1.00809      0.856104       261.889
      0.91022       1.00605      0.856206       307.052
         0.75       1.05625       0.85625       284.805
         0.91       1.05625       0.85625       304.215
     0.449237       1.10659      0.855147       281.881
         0.91        1.1062      0.856258       294.823
     0.858334      0.608631      0.896833        276.13
         0.75      0.806872      0.906029       278.097
       0.2583       0.85403      0.915471       261.126
         0.75      0.856292      0.906216       290.554
         0.45      0.906232       0.90623       300.857
      0.91263       0.90799      0.905992       282.757
     0.257502      0.955673      0.912759       272.718
     0.911231      0.955239      0.905667       295.286
     0.610693       1.00521      0.906753       306.431
     0.748791       1.00785      0.907614       270.655
     0.256336       1.05433      0.901992       335.694
         0.61       1.05619      0.906289       310.201
         0.75       1.05626      0.906253       280.379
     0.912759        1.0562      0.902811       274.699
     0.449154       1.10783      0.906542       278.652
     0.610007       1.10619      0.907031       302.795
         0.45       1.15505      0.906733       289.502
         0.91       1.15625      0.906565       303.139
         0.91       1.20619      0.906178       306.353
     0.856868      0.706084      0.962775       284.427
      0.55736      0.847293      0.959155       271.738
     0.558058      0.906349      0.947049       272.113
         0.61       0.95896      0.956219       295.661
         0.75      0.956837      0.956669       283.807
     0.913879      0.954491       0.95484       274.302
     0.311602        1.0068      0.958361        281.77
         0.75       1.00627      0.956291       292.267
     0.610431        1.0576      0.956414       310.777
      0.74858        1.0568      0.954862       255.745
         0.45       1.10625      0.956257       302.443
         0.61       1.10625       0.95625       310.859
     0.449325        1.1557      0.955994       288.381
         0.61       1.15619      0.956291       306.647
     0.912683       1.15475      0.957267       284.775
     0.857058       0.61355       1.00552        269.11
     0.556354      0.706754       1.00006       298.452
     0.505023      0.805732       1.01536       277.389
     0.858341       0.84751        1.0084       266.988
     0.312694      0.958374       1.00753       287.108
      0.44804      0.958747       1.00527       275.906
     0.804612      0.961169       1.01189       316.576
     0.913857       0.95879        1.0088       266.931
         0.31       1.00625       1.00592       312.529
         0.45       1.00625       1.00654       304.378
         0.31       1.05625       1.00626       314.135
         0.45       1.05626       1.00627       305.339
     0.804895       1.04936       1.00649       288.418
     0.312472       1.10396       1.00587        293.53
         0.45       1.10581       1.00653       303.836
     0.910481       1.10671       1.00633        297.83
         0.61       1.15579        1.0061       301.373
         0.91       1.15615       1.00629       298.073
     0.856546       0.66308       1.05484       279.101
     0.312727      0.906056       1.05819       289.774
     0.504734      0.914339       1.05852       277.096
     0.804467      0.897892       1.05849       272.567
         0.61      0.954737       1.05723       287.989
     0.911461      0.958074       1.05662       279.537
         0.45       1.00652       1.05566       296.803
     0.910681       1.00583       1.05675        291.41
         0.91       1.05626       1.05627       296.953
         0.31       1.10621       1.05626       313.234
     0.448034       1.10509       1.05494       273.807
         0.91       1.10624       1.05624       303.066
         0.61       1.15641       1.05643        302.73
     0.912528       1.15648        1.0538        285.79
     0.612672       1.20529       1.05771       285.484
     0.504967      0.710294       1.10291       317.041
     0.857069       0.71008       1.10323       318.301
     0.857287      0.804271       1.09808       266.947
         0.31      0.856957        1.1065       305.511
     0.311311      0.905141       1.10613       300.725
     0.612719      0.909455       1.10735       280.839
     0.610229      0.956207       1.10623       304.789
     0.612569        1.0071       1.10645       297.148
     0.804448       1.00978       1.09581         255.7
     0.911732       1.00553       1.10306       261.734
     0.312863       1.05917       1.10449       282.975
         0.61       1.05642       1.10692       306.076
         0.91       1.05635       1.10607       289.865
     0.310232       1.10613       1.10609        313.91
     0.611301       1.10536       1.10593       303.561
     0.310027       1.15458       1.10565       298.986
     0.612619       1.20627       1.10465       293.865
     0.504754      0.714451       1.15459       274.971
         0.31      0.906226       1.15626       313.277
     0.804257       0.90412       1.16877       247.973
     0.612438      0.957892       1.15636        287.43
      0.61024       1.00599       1.15608       307.695
     0.804726       1.01082       1.15315       312.268
     0.504905       1.05118       1.15324       321.784
         0.61       1.05621       1.15618       310.078
         0.31       1.10553       1.15493       300.897
         0.61        1.1062       1.15623       309.603
     0.805395       1.10547       1.15994       319.918
         0.31      0.859218       1.20328       285.061
     0.311158      0.906804       1.20617       305.957
         0.31       0.95625       1.20625       314.319
     0.804237      0.953786       1.21731       250.221
         0.31       1.00617       1.20648       312.093
     0.804917       1.01311       1.20643       287.369
         0.31       1.10569        1.2068       305.103
     0.804955       1.10271       1.20199       308.301
     0.504491      0.758564       1.24707       265.233
     0.505009       0.80611        1.2498       298.477
     0.804885      0.865901       1.25775       271.954
     0.312531      0.959409       1.25494       288.458
     0.311425        1.0064       1.25553       300.403
     0.503805      0.995877       1.25622       244.781
     0.311594        1.1072       1.25413       286.616
     0.504444      0.816806       1.30634       270.048
        0.805       1.04834       1.30586       282.933
     0.504476      0.853618       1.34708       267.151
     0.251979      0.895177      0.646347       276.935
     0.251966       0.90491      0.646377       276.745
         0.25       0.89416      0.656832       297.898
         0.25      0.894156       0.69375       304.517
         0.25      0.905844       0.69375       304.517
     0.742688       1.00851      0.664922        268.49
     0.742063       1.03719      0.693743       283.936
     0.558355      0.702908      0.741598       267.566
     0.551856      0.708469      0.742515       279.197
         0.55      0.743637      0.743865       305.508
     0.556456       0.74165      0.709193       326.339
         0.25      0.794233      0.744959        295.17
         0.55      0.755919      0.744089       300.464
     0.557786      0.799306        0.7493       321.488
         0.25      0.806303      0.744207       301.935
         0.25      0.843566      0.744784       297.905
     0.551655      0.807558      0.746317       276.983
         0.55      0.843846      0.743882       305.439
     0.558353      0.846767      0.717698       255.844
     0.742097      0.853097      0.742977       269.371
         0.25       0.89415      0.706255       304.669
     0.250846      0.856579      0.745096       291.375
         0.25      0.893756      0.743409       305.503
         0.55       0.85624      0.743806       308.166
     0.556385      0.887284      0.742077       284.509
     0.742952      0.893072       0.71418       274.014
         0.25      0.906244      0.743409       305.501
     0.250846      0.943421      0.745096       291.372
      0.74167      0.904114      0.715143       260.368
     0.442614       1.00332      0.747141       263.618
         0.25       1.00577      0.744959       295.141
     0.442808       1.03939      0.748963       317.558
     0.742014       1.03633      0.705898       278.191
     0.857184       0.69888      0.798169       316.957
         0.55      0.743755      0.756258       307.424
         0.55      0.743844      0.793266       302.616
     0.851031      0.707578      0.795099       280.299
         0.85      0.742827       0.79443        289.24
         0.25      0.793919      0.756518       304.177
         0.25      0.793863      0.793303       309.252
     0.551292       0.79579      0.758376       283.729
     0.550722      0.756537      0.793085       295.731
     0.556784      0.796131      0.789897       330.273
         0.85      0.793799      0.794414       289.732
         0.25      0.843688      0.756443       306.229
         0.25      0.806261      0.793752       311.507
         0.55      0.843754      0.756257       309.241
     0.551902      0.807402      0.790822       278.456
     0.743521      0.842445      0.762958       265.494
     0.743114      0.815175      0.792414       278.632
     0.850943      0.806287      0.793758       284.853
     0.851048       0.84494      0.796508        268.13
     0.251605      0.894723      0.753643       286.901
     0.257851      0.854354      0.784434       260.861
         0.55      0.856292      0.793734         309.6
         0.55       0.89375       0.79375       310.726
         0.85      0.855988      0.796232         273.3
         0.25      0.943854      0.756427       303.098
     0.257851      0.945646      0.784434       260.845
     0.442644      0.946637      0.765268       268.615
         0.55       0.90623      0.793757       309.569
      0.55742      0.934117      0.760045        270.77
     0.556321       0.94492      0.799346       301.032
     0.557754      0.938119      0.793297       301.917
         0.25       0.99372       0.75634        308.28
         0.25      0.993739      0.793752       311.478
     0.443628       0.95627      0.763666       287.568