#      face_x        face_y        face_z           CO2
     0.748539      0.857538      0.756497       277.563
     0.557814      0.747833      0.853327       306.492
     0.257991       0.96662      0.855041        278.45
     0.257794       0.96429      0.903364       309.762
     0.612926       1.00811      0.954911       293.955
     0.312852       1.05816        1.0564       294.415
     0.313318      0.859674       1.15537       288.253
     0.311458       1.05658       1.20625       303.006
     0.557745       0.89419       0.75114       306.252
     0.251533      0.842823      0.793507       294.504
     0.550632      0.844108      0.793936       300.204
     0.742187      0.851435      0.754611       287.881
     0.551473      0.893068      0.757303       292.707
     0.257843       0.95084       0.79388       310.776
     0.251533      0.957177      0.793507       294.589
     0.442011       1.09369      0.804892       279.079
     0.257841      0.750643      0.845653           311
         0.85      0.743755       0.84373       294.506
      0.25152      0.757168      0.845171       294.956
     0.387032      0.757376      0.845008       286.454
     0.742189      0.813446      0.804762       296.139
     0.742168      0.886074      0.841342       302.633
      0.25152       1.04283      0.845171       295.237
     0.387025      0.695481      0.857748       291.169
     0.551509      0.742262      0.855498       288.878
     0.257991       0.83338      0.855041       278.248
     0.850606      0.844184      0.892693       282.331
     0.442181      0.937768       0.89121       316.168
     0.912805      0.943511      0.857973       283.025
     0.913038       1.14399       0.89569       286.014
     0.387023      0.644593      0.944683         285.4
     0.556871      0.699653      0.945171       305.321
     0.687042      0.694287      0.945339       275.342
     0.550766       0.70684      0.943642       296.317
     0.387144       0.75756      0.905371       290.431
     0.557779      0.794387      0.952241       309.756
     0.257794       0.83571      0.903364       309.657
     0.851527      0.844176      0.903931       282.016
     0.910977       1.14409      0.943675       298.047
     0.911692       1.15509      0.943849       292.753
     0.386903      0.654712      0.993903       285.948
     0.688563      0.656299      0.994548       291.937
     0.551473      0.744246      0.993007       293.817
     0.689601      0.706093      0.956533       296.781
     0.857767      0.740785       1.00021       301.057
     0.551516       0.79322      0.958079       294.884
     0.687072      0.693273        1.0423       283.231
     0.851544      0.741663       1.00668       288.429
     0.611332       1.14507       1.04367       290.045
     0.611317        1.1553       1.04358       292.784
     0.687085      0.657312       1.09436       278.998
     0.495292      0.751244       1.05703       301.236
     0.386886      0.796112       1.05931       279.868
     0.912882       1.09175        1.0922       285.216
     0.611731       1.14388       1.09284       290.974
     0.912894       1.14246       1.05465       285.103
     0.686519      0.743018       1.14523       274.728
     0.689295      0.806348       1.14399       298.193
     0.495328      0.950399        1.1065       308.815
     0.612945      0.944867       1.14287       280.619
     0.310628       1.09398       1.10627       310.847
     0.612617       1.14314       1.10383       290.041
     0.688924      0.743857       1.15656       295.214
     0.795272      0.891955       1.16268       306.586
     0.804728      0.891955       1.16268       305.567
     0.311411      0.992369        1.1939       303.877
     0.311756       1.05676       1.19506       298.084
     0.312502      0.894726       1.20545       298.729
     0.795214      0.863849       1.24574       297.978
     0.804786      0.863849       1.24574        296.61
     0.313066      0.945485       1.24198       295.318
     0.795272      0.935403       1.20719       295.199
     0.804728      0.935403       1.20719       294.351
     0.311597      0.957384       1.24295       303.779
     0.266289      0.916437       0.76047       314.156
         0.75      0.968454       0.75598       284.133
     0.748267      0.968768      0.766286        267.75
     0.748463       1.01788       0.75756       282.355
     0.749356       1.00581      0.768134       284.222
     0.748562      0.819898      0.806476       275.892
      0.91875       1.00324      0.815161       277.549
     0.912967       1.00533      0.819908       282.364
     0.566202       0.74779      0.853612       305.483
     0.266189      0.966621      0.855045       277.689
     0.257861      0.763981      0.917751       308.703
     0.374667      0.757497      0.905367       296.821
     0.566241      0.760954      0.916255       308.011
     0.374928      0.807347      0.917673       284.761
     0.266201       0.96437      0.903532       308.686
      0.91875       1.01894      0.893224       244.233
      0.67188      0.705903      0.956575       302.798
     0.612941        1.0586      0.966908       292.752
         0.45       1.01863       1.00653        299.27
     0.804767       1.05631       1.02612       304.752
      0.31875       1.10848       1.01627       278.227
     0.312817       1.10405       1.01797       292.627
     0.449391       1.10475       1.01903       288.996
     0.617247       1.11711      0.997424       278.023
     0.910705       1.11886       1.00633       296.063
     0.374779      0.805665       1.11755       297.442
     0.672711      0.856324       1.11909       299.422
     0.809835      0.867726       1.11818       284.818
      0.31875      0.910704       1.11883       279.519
     0.312877      0.904916       1.11853       292.831
     0.610629      0.968756       1.10635       295.516
     0.804742       1.02469       1.10678       298.751
      0.91875       1.01967       1.10631       234.632
     0.913654       1.01959       1.10289       267.449
      0.31875       1.07766       1.11786       283.636
      0.61875       1.14844       1.10274       286.729
     0.671711      0.818751       1.16879       305.955
     0.804764       1.02617       1.17037       299.968
      0.31875       1.07682       1.16841       273.462
     0.674715      0.768605       1.20505       283.726
     0.505086      0.924693       1.21678       300.493
         0.81      0.918227       1.21834       299.042
     0.313691       1.05609       1.21647       285.527
     0.557801      0.783913      0.752575       307.543
     0.566195      0.783994      0.752597        304.24
     0.566207      0.894207      0.751151       307.327
     0.551481      0.732366      0.793432       292.757
     0.557769      0.726582      0.791968        308.98
     0.566169      0.726614      0.791879       306.624
     0.551562      0.782512      0.757904       290.485
         0.55      0.781558      0.768802       300.263
     0.550776      0.781011      0.780521       290.367
      0.55697      0.781685      0.787587        311.32
     0.551485      0.832127      0.792677       291.935
     0.733835      0.851465      0.754593       294.551
     0.250807       0.88138      0.754792       294.117
     0.266289      0.883563       0.76047       314.183
     0.550634      0.880991      0.756089        301.19
     0.266168       0.95085       0.79395       308.645
     0.433831      0.930896      0.788128       308.529
         0.25      0.968881      0.793725       309.422
     0.433817        1.0937      0.804893       278.938
      0.38125      0.696646      0.852673        302.48
      0.26619      0.750732      0.845453       309.004
     0.374796      0.757272       0.84501       295.607
     0.733827      0.813461      0.804824       301.108
     0.550633      0.894199      0.831575       298.714
     0.551476      0.882108       0.83067        291.65
     0.557733      0.881345      0.837302       305.412
     0.733799      0.886057      0.841401       302.277
      0.91875      0.942288      0.853012       264.068
     0.442194       1.03322      0.835486       304.916
     0.910454       1.00645      0.831373       299.238
     0.374805      0.695363      0.857743       300.677
         0.55      0.693964      0.881234       305.119
     0.551728      0.682369      0.891976       288.788
     0.550699      0.682653      0.879818       289.068
     0.557933      0.676311      0.890631       286.647
     0.566229      0.676524      0.890794       282.706
         0.85      0.682208      0.868984       297.431
     0.851715      0.733348      0.866122       277.607
     0.742175      0.801453      0.876985       312.848
     0.733746       0.80174      0.877534       310.099
      0.85174       0.79496      0.867234       280.202
     0.251744      0.828444      0.854821       289.222
     0.266189      0.833379      0.855045       277.525
     0.374822      0.830192      0.869242       294.164
     0.371728      0.818694      0.893791       306.322
         0.39      0.818751      0.893748       307.858
      0.55784      0.901975      0.883202       307.233
     0.566177       0.90199      0.883251       305.149
     0.733625      0.862705      0.883616       309.996
         0.85      0.856768      0.881343       292.053
     0.433794      0.937756      0.891247       315.306
         0.55      0.943675      0.868588       303.813
     0.551572      0.907561      0.881722       285.413
         0.55      0.918984      0.881632       299.733
         0.25      0.981658      0.855477       309.155
     0.910401      0.956387      0.881138       302.077
      0.61875       1.01624      0.890732       295.033
     0.612974       1.01723      0.895482        295.06
     0.913659       1.01825      0.890052       275.064
     0.617267       1.08262       0.90245       281.364
     0.913662       1.08124      0.890225       277.045
     0.374857      0.644642      0.944518       297.895
     0.851544       0.64522      0.917372       289.038
     0.866185      0.639723      0.918395       302.769
      0.56636      0.699715      0.945326       305.106
     0.674872      0.694123      0.945384       288.746
     0.566186      0.794434       0.95227       309.152
      0.68125      0.766523      0.927117       263.193
     0.675931      0.767807       0.93172       264.163
     0.251515      0.829974      0.905367       295.598
     0.266201       0.83563      0.903532       308.608
     0.386973      0.807459       0.91769       289.408
         0.25      0.981444      0.906302       309.735
     0.251552       1.02995      0.917143       294.576
     0.257861       1.03602      0.917751       308.649
     0.611295       1.08134      0.907394       296.484
         0.61       1.06875      0.943743       310.803
     0.618745       1.14179      0.928525       276.896
     0.613125         1.143      0.933438       281.283
     0.911666       1.13179       0.90566       292.977
     0.913184       1.13441      0.943571       281.336
      0.68125      0.652152      0.983822       288.508
      0.37494      0.654653      0.993763       295.752
      0.67368      0.655327      0.995096        297.68
     0.674887      0.656666        0.9828       296.917
     0.687424      0.657252      0.983142       285.666
     0.673648      0.732269      0.992442       295.141
     0.688563      0.731223      0.993061       289.441
     0.866198       0.74084       1.00023       297.729
         0.55      0.781346       0.96914       310.189
     0.672892      0.781278      0.968441       283.132
      0.67598      0.781762      0.980177       264.226
     0.311144       1.04289      0.981382       306.054
     0.433826       1.01619      0.990528        301.72
         0.61       1.13125      0.956257       302.846
     0.611296       1.11861      0.992566       290.421
     0.917268       1.11647      0.990977       279.427
     0.911657       1.11895      0.995042       287.202
      0.38125      0.691788       1.03045       255.096
     0.376165      0.690509       1.03371       284.854
     0.386875      0.691784       1.03434       279.573
      0.67188      0.681565       1.03098       305.461
     0.674826      0.693421       1.04225       292.008
     0.674805      0.731008       1.00514       296.618
      0.68747      0.730344       1.00479       283.631
      0.68125      0.735512       1.00434       283.508
     0.850586      0.729812       1.00666       290.438
      0.38125      0.796379       1.05519       257.217
     0.851577      0.782533       1.02051       288.401
         0.85      0.781529       1.03148       301.208
     0.857817      0.784192       1.01523        309.67
     0.310394        1.0317       1.00628       311.663
     0.795233       1.05631       1.02612       306.185
     0.910405       1.06887       1.04378       299.886
      0.68125      0.651884       1.09491       280.972
     0.370859      0.681882       1.08126       315.388
     0.371918      0.681828       1.09399       310.981
     0.389531      0.681026       1.09348       302.946
     0.674766      0.657344       1.09424       288.552
     0.674971      0.678259       1.09474       287.299
     0.686859      0.678251       1.09491       277.204
      0.68125      0.682195        1.0961       250.174
     0.851615       0.69496       1.06698       282.674
      0.37473      0.744159       1.06945       295.331
      0.38125      0.746392       1.06442       286.208
     0.387609      0.744785       1.06991       287.747
     0.371081      0.743295       1.08129       314.825
         0.39      0.743715        1.0814       305.102
     0.376167      0.797519       1.05867       285.887
         0.49      0.781252       1.06875       301.982
         0.51      0.781252       1.06875       296.534
     0.851549      0.768735       1.08023         286.2
     0.857842      0.768096       1.08646       303.469
     0.611531      0.967496       1.09431       291.607
      0.61875      0.977799       1.08904       279.735
     0.612987       0.97938       1.09446       283.645
     0.910959       1.01907       1.09329       291.248
      0.61875       1.08477       1.10309       291.956
     0.618728       1.13211       1.07961       252.802
     0.374729      0.679427        1.1045       300.085
      0.38125      0.676989        1.1091       290.052
     0.387085      0.679345       1.10449       287.779
     0.674864      0.680897       1.14252       291.566
     0.686974      0.681018       1.14259       281.603
     0.374786       0.73285       1.12964       297.517
      0.49513      0.726461       1.12765       309.506
     0.490164      0.732721        1.1295       292.933
      0.50487      0.726461       1.12765       301.348
     0.509836      0.732721        1.1295       280.496
     0.675981      0.743019       1.14523       278.148
         0.49      0.781227       1.13125       307.578
         0.51      0.781227       1.13125       298.779
     0.795479      0.803731       1.12936        273.15
     0.804521      0.803731       1.12936       272.514
     0.387082      0.805538       1.11758       285.452
     0.681251      0.803488       1.12956        283.78
      0.67294      0.805858       1.14422       301.927
     0.675985      0.804895       1.13333       281.265
     0.686974      0.805472       1.13336       282.318
     0.310466      0.869574       1.14419       310.184
     0.310401      0.893476       1.13098       311.786
     0.688555      0.856409       1.11912        295.11
     0.671831      0.869009       1.13114        304.89
     0.673685      0.881726       1.14304       296.821
     0.688167      0.881628       1.14308       293.196
     0.790165      0.867726       1.11818       275.778
     0.610401      0.956094       1.13107       297.722
     0.795258       1.02469       1.10678       301.429
     0.612975       1.08287       1.10785       293.154
     0.672895       0.74382        1.1566       299.702
      0.67464      0.830731       1.19271       292.472
     0.687201      0.830621       1.19275       281.941
     0.795133       0.82567       1.19571       295.953
     0.804867       0.82567       1.19571       293.511
     0.674779      0.880251       1.15567       295.145
     0.687106      0.880307       1.15549       286.085
      0.68125      0.885073       1.15549       278.663
     0.790009      0.880492       1.16822       292.663
     0.809991      0.880492       1.16822       290.402
     0.490421       1.01644       1.17887       289.266
     0.509579       1.01644       1.17887       274.942
      0.61297       1.00789       1.17969        291.15
      0.61875       1.00852        1.1847       291.392
     0.795236       1.02617       1.17037       301.164
     0.790162       1.03233       1.16898       284.531
     0.809838       1.03233       1.16898       279.031
      0.68125      0.768898        1.2104       269.447
     0.687147      0.768468        1.2051       281.774
     0.494914      0.924693       1.21678       302.095
     0.490154      0.931887       1.21881       287.303
     0.509846      0.931887       1.21881       278.174
         0.79      0.918227       1.21834       294.016
     0.490162      0.980539       1.23122       289.837
     0.495251      0.987443        1.2321       303.171
     0.509838      0.980539       1.23122       280.943
     0.504749      0.987443        1.2321       295.131
     0.795243      0.980062       1.22727       280.632
     0.790195      0.980725       1.23337       280.631
     0.804757      0.980062       1.22727       280.003
     0.809805      0.980725       1.23337       273.167
        0.558      0.856792      0.715111       275.743
         0.75       1.00625      0.706265       293.726
     0.556887      0.709912      0.753938       331.929
     0.256669      0.764109       0.75772       279.951
         0.75      0.906243      0.756256        293.84
         0.75      0.955768      0.756374       281.682
         0.45       1.00832      0.756804       276.472
         0.75       1.00578       0.75598       289.747
      0.55829      0.808469      0.795297       257.736
     0.256807      0.852479      0.808922       332.451
         0.75       0.85625       0.80625       296.865
         0.45      0.906288      0.806445       293.071
         0.75      0.905788      0.805969       286.614
         0.45      0.956246      0.806247       299.865
     0.911651      0.957722      0.806817       275.768
         0.45       1.00625      0.806254        300.26
     0.257084       1.05253      0.809286       322.362
         0.45        1.0562       0.80624       293.449
         0.75       1.05625      0.806267        296.88
     0.448551       1.10751      0.809123       269.396
     0.748875       1.10387      0.806898       263.123
     0.911601       1.10545      0.808658        277.17
         0.45       1.15612      0.806185       289.984
     0.557509      0.756839       0.86229       274.154
         0.75      0.806442      0.856163        291.34
         0.75      0.856198      0.856198       293.573
         0.45      0.906292      0.856266       304.752
      0.91383      0.908677      0.858668       260.678
     0.449329      0.955735      0.855596       283.681
     0.911571      0.956027      0.856179       294.881
     0.448116       1.00611      0.855193        281.86
     0.748835       1.00809      0.856104       264.575
      0.91022       1.00605      0.856206       302.744
         0.75       1.05625       0.85625       299.213
         0.91       1.05625       0.85625       301.534
     0.449237       1.10659      0.855147       280.426
         0.91        1.1062      0.856258       304.269
     0.858334      0.608631      0.896833        274.69
         0.75      0.806872      0.906029       292.698
       0.2583       0.85403      0.915471       261.205
         0.75      0.856292      0.906216       298.673
         0.45      0.906232       0.90623       304.939
      0.91263       0.90799      0.905992       281.257
     0.257502      0.955673      0.912759       272.964
     0.911231      0.955239      0.905667       291.467
     0.610693       1.00521      0.906753       305.105
     0.748791       1.00785      0.907614        269.33
     0.256336       1.05433      0.901992       335.761
         0.61       1.05619      0.906289       308.743
         0.75       1.05626      0.906253       298.438
     0.912759        1.0562      0.902811       271.372
     0.449154       1.10783      0.906542       279.724
     0.610007       1.10619      0.907031       300.453
         0.45       1.15505      0.906733       284.978
         0.91       1.15625      0.906565       305.546
         0.91       1.20619      0.906178       308.734
     0.856868      0.706084      0.962775       285.384
      0.55736      0.847293      0.959155       271.049
     0.558058      0.906349      0.947049       273.049
         0.61       0.95896      0.956219       294.886
         0.75      0.956837      0.956669       291.511
     0.913879      0.954491       0.95484       273.189
     0.311602        1.0068      0.958361       281.598
         0.75       1.00627      0.956291       297.549
     0.610431        1.0576      0.956414       308.938
      0.74858        1.0568      0.954862       273.719
         0.45       1.10625      0.956257        302.75
         0.61       1.10625       0.95625       306.364
     0.449325        1.1557      0.955994       284.868
         0.61       1.15619      0.956291       303.956
     0.912683       1.15475      0.957267        288.89
     0.857058       0.61355       1.00552       277.962
     0.556354      0.706754       1.00006       298.008
     0.505023      0.805732       1.01536       276.376
     0.858341       0.84751        1.0084       264.228
     0.312694      0.958374       1.00753       287.289
      0.44804      0.958747       1.00527       274.349
     0.804612      0.961169       1.01189       313.368
     0.913857       0.95879        1.0088       268.676
         0.31       1.00625       1.00592       312.857
         0.45       1.00625       1.00654       299.778
         0.31       1.05625       1.00626        314.26
         0.45       1.05626       1.00627       300.943
     0.804895       1.04936       1.00649       285.106
     0.312472       1.10396       1.00587       293.479
         0.45       1.10581       1.00653       299.496
     0.910481       1.10671       1.00633       298.916
         0.61       1.15579        1.0061       302.847
         0.91       1.15615       1.00629       300.693
     0.856546       0.66308       1.05484       273.679
     0.312727      0.906056       1.05819       289.557
     0.504734      0.914339       1.05852       275.745
     0.804467      0.897892       1.05849       272.458
         0.61      0.954737       1.05723       293.188
     0.911461      0.958074       1.05662       278.571
         0.45       1.00652       1.05566       295.945
     0.910681       1.00583       1.05675       294.014
         0.91       1.05626       1.05627       301.156
         0.31       1.10621       1.05626       313.029
     0.448034       1.10509       1.05494       269.268
         0.91       1.10624       1.05624       302.321
         0.61       1.15641       1.05643       298.705
     0.912528       1.15648        1.0538       279.964
     0.612672       1.20529       1.05771       283.537
     0.504967      0.710294       1.10291       316.561
     0.857069       0.71008       1.10323       314.788
     0.857287      0.804271       1.09808        264.36
         0.31      0.856957        1.1065       305.496
     0.311311      0.905141       1.10613       300.505
     0.612719      0.909455       1.10735       279.464
     0.610229      0.956207       1.10623       299.669
     0.612569        1.0071       1.10645       294.255
     0.804448       1.00978       1.09581       253.258
     0.911732       1.00553       1.10306       271.373
     0.312863       1.05917       1.10449        282.86
         0.61       1.05642       1.10692       304.256
         0.91       1.05635       1.10607       295.978
     0.310232       1.10613       1.10609       313.674
     0.611301       1.10536       1.10593       298.956
     0.310027       1.15458       1.10565       298.883
     0.612619       1.20627       1.10465       292.355
     0.504754      0.714451       1.15459       274.212
         0.31      0.906226       1.15626       313.549
     0.804257       0.90412       1.16877        245.34
     0.612438      0.957892       1.15636       284.224
      0.61024       1.00599       1.15608       306.103
     0.804726       1.01082       1.15315       310.557
     0.504905       1.05118       1.15324       321.182
         0.61       1.05621       1.15618       308.527
         0.31       1.10553       1.15493         300.8
         0.61        1.1062       1.15623       306.179
     0.805395       1.10547       1.15994       326.959
         0.31      0.859218       1.20328       284.978
     0.311158      0.906804       1.20617       306.157
         0.31       0.95625       1.20625       314.708
     0.804237      0.953786       1.21731       243.075
         0.31       1.00617       1.20648       312.344
     0.804917       1.01311       1.20643       287.178
         0.31       1.10569        1.2068       305.155
     0.804955       1.10271       1.20199       313.975
     0.504491      0.758564       1.24707       264.771
     0.505009       0.80611        1.2498       297.912
     0.804885      0.865901       1.25775       265.553
     0.312531      0.959409       1.25494       288.432
     0.311425        1.0064       1.25553       300.391
     0.503805      0.995877       1.25622       242.072
     0.311594        1.1072       1.25413       286.537
     0.504444      0.816806       1.30634       269.648
        0.805       1.04834       1.30586       283.666
     0.504476      0.853618       1.34708       266.874
     0.251979      0.895177      0.646347       276.807
     0.251966       0.90491      0.646377       276.578
         0.25       0.89416      0.656832       297.768
         0.25      0.894156       0.69375       304.438
         0.25      0.905844       0.69375        304.43
     0.742688       1.00851      0.664922       270.107
     0.742063       1.03719      0.693743       286.995
     0.558355      0.702908      0.741598       267.175
     0.551856      0.708469      0.742515       278.744
         0.55      0.743637      0.743865       305.218
     0.556456       0.74165      0.709193       326.229
         0.25      0.794233      0.744959       295.228
         0.55      0.755919      0.744089       299.767
     0.557786      0.799306        0.7493        319.32
         0.25      0.806303      0.744207       302.046
         0.25      0.843566      0.744784       298.111
     0.551655      0.807558      0.746317        272.02
         0.55      0.843846      0.743882       302.216
     0.558353      0.846767      0.717698       253.848
     0.742097      0.853097      0.742977       269.921
         0.25       0.89415      0.706255       304.668
     0.250846      0.856579      0.745096       291.577
         0.25      0.893756      0.743409       305.722
         0.55       0.85624      0.743806       306.009
     0.556385      0.887284      0.742077       283.247
     0.742952      0.893072       0.71418       275.971
         0.25      0.906244      0.743409       305.739
     0.250846      0.943421      0.745096        291.53
      0.74167      0.904114      0.715143       262.065
     0.442614       1.00332      0.747141       258.901
         0.25       1.00577      0.744959       295.235
     0.442808       1.03939      0.748963       318.366
     0.742014       1.03633      0.705898       280.319
     0.857184       0.69888      0.798169       315.135
         0.55      0.743755      0.756258       306.518
         0.55      0.743844      0.793266       302.942
     0.851031      0.707578      0.795099       273.233
         0.85      0.742827       0.79443       279.243
         0.25      0.793919      0.756518       304.258
         0.25      0.793863      0.793303       309.252
     0.551292       0.79579      0.758376       282.485
     0.550722      0.756537      0.793085       295.618
     0.556784      0.796131      0.789897       327.391
         0.85      0.793799      0.794414       286.575
         0.25      0.843688      0.756443       306.473
         0.25      0.806261      0.793752       311.526
         0.55      0.843754      0.756257       306.062
     0.551902      0.807402      0.790822       274.336
     0.743521      0.842445      0.762958       267.057
     0.743114      0.815175      0.792414       274.908
     0.850943      0.806287      0.793758       282.535
     0.851048       0.84494      0.796508       267.402
     0.251605      0.894723      0.753643       287.124
     0.257851      0.854354      0.784434       260.996
         0.55      0.856292      0.793734       307.706
         0.55       0.89375       0.79375       308.777
         0.85      0.855988      0.796232       273.838
         0.25      0.943854      0.756427       303.324
     0.257851      0.945646      0.784434       261.057
     0.442644      0.946637      0.765268       267.465
         0.55       0.90623      0.793757       307.511
      0.55742      0.934117      0.760045       269.228
     0.556321       0.94492      0.799346       299.361
     0.557754      0.938119      0.793297       300.245
         0.25       0.99372       0.75634       308.491
         0.25      0.993739      0.793752       311.849
     0.443628       0.95627      0.763666       286.019