#      face_x        face_y        face_z           CO2
     0.748539      0.857538      0.756497       282.923
     0.557814      0.747833      0.853327       304.728
     0.257991       0.96662      0.855041       276.854
     0.257794       0.96429      0.903364       307.861
     0.612926       1.00811      0.954911       290.956
     0.312852       1.05816        1.0564       292.625
     0.313318      0.859674       1.15537       286.698
     0.311458       1.05658       1.20625       302.178
     0.557745       0.89419       0.75114        304.52
     0.251533      0.842823      0.793507       293.059
     0.550632      0.844108      0.793936       296.943
     0.742187      0.851435      0.754611        293.43
     0.551473      0.893068      0.757303       290.528
     0.257843       0.95084       0.79388       309.484
     0.251533      0.957177      0.793507       293.092
     0.442011       1.09369      0.804892       278.534
     0.257841      0.750643      0.845653       308.948
         0.85      0.743755       0.84373       300.807
      0.25152      0.757168      0.845171       292.445
     0.387032      0.757376      0.845008       283.882
     0.742189      0.813446      0.804762       295.161
     0.742168      0.886074      0.841342       302.209
      0.25152       1.04283      0.845171       292.905
     0.387025      0.695481      0.857748       287.879
     0.551509      0.742262      0.855498       288.813
     0.257991       0.83338      0.855041        276.54
     0.850606      0.844184      0.892693       290.176
     0.442181      0.937768       0.89121       314.513
     0.912805      0.943511      0.857973       285.147
     0.913038       1.14399       0.89569        289.02
     0.387023      0.644593      0.944683       283.953
     0.556871      0.699653      0.945171       301.798
     0.687042      0.694287      0.945339       284.348
     0.550766       0.70684      0.943642       292.694
     0.387144       0.75756      0.905371       286.373
     0.557779      0.794387      0.952241       306.837
     0.257794       0.83571      0.903364        307.88
     0.851527      0.844176      0.903931       285.514
     0.910977       1.14409      0.943675       300.314
     0.911692       1.15509      0.943849       295.599
     0.386903      0.654712      0.993903       287.639
     0.688563      0.656299      0.994548        294.76
     0.551473      0.744246      0.993007       291.049
     0.689601      0.706093      0.956533       303.185
     0.857767      0.740785       1.00021       303.216
     0.551516       0.79322      0.958079       291.829
     0.687072      0.693273        1.0423       284.796
     0.851544      0.741663       1.00668       289.032
     0.611332       1.14507       1.04367       290.742
     0.611317        1.1553       1.04358       293.629
     0.687085      0.657312       1.09436        284.04
     0.495292      0.751244       1.05703       300.888
     0.386886      0.796112       1.05931       280.392
     0.912882       1.09175        1.0922       287.217
     0.611731       1.14388       1.09284       290.705
     0.912894       1.14246       1.05465       288.608
     0.686519      0.743018       1.14523       277.327
     0.689295      0.806348       1.14399       299.604
     0.495328      0.950399        1.1065       306.085
     0.612945      0.944867       1.14287       286.874
     0.310628       1.09398       1.10627        309.35
     0.612617       1.14314       1.10383       290.643
     0.688924      0.743857       1.15656       297.321
     0.795272      0.891955       1.16268       305.118
     0.804728      0.891955       1.16268       304.295
     0.311411      0.992369        1.1939       302.078
     0.311756       1.05676       1.19506       297.351
     0.312502      0.894726       1.20545       296.705
     0.795214      0.863849       1.24574       299.424
     0.804786      0.863849       1.24574       298.733
     0.313066      0.945485       1.24198       293.308
     0.795272      0.935403       1.20719       297.397
     0.804728      0.935403       1.20719       296.803
     0.311597      0.957384       1.24295       301.677
     0.266289      0.916437       0.76047       313.136
         0.75      0.968454       0.75598       299.593
     0.748267      0.968768      0.766286       279.585
     0.748463       1.01788       0.75756       287.028
     0.749356       1.00581      0.768134       293.441
     0.748562      0.819898      0.806476       280.928
      0.91875       1.00324      0.815161       281.444
     0.912967       1.00533      0.819908        285.73
     0.566202       0.74779      0.853612       304.091
     0.266189      0.966621      0.855045       276.108
     0.257861      0.763981      0.917751        306.92
     0.374667      0.757497      0.905367        295.37
     0.566241      0.760954      0.916255       305.315
     0.374928      0.807347      0.917673       283.446
     0.266201       0.96437      0.903532       306.816
      0.91875       1.01894      0.893224       247.959
      0.67188      0.705903      0.956575       302.555
     0.612941        1.0586      0.966908       290.363
         0.45       1.01863       1.00653       305.131
     0.804767       1.05631       1.02612        304.93
      0.31875       1.10848       1.01627       276.624
     0.312817       1.10405       1.01797       290.625
     0.449391       1.10475       1.01903       292.074
     0.617247       1.11711      0.997424       280.045
     0.910705       1.11886       1.00633       300.364
     0.374779      0.805665       1.11755       295.785
     0.672711      0.856324       1.11909       297.175
     0.809835      0.867726       1.11818       285.575
      0.31875      0.910704       1.11883       278.258
     0.312877      0.904916       1.11853       291.395
     0.610629      0.968756       1.10635       301.161
     0.804742       1.02469       1.10678       300.297
      0.91875       1.01967       1.10631       242.672
     0.913654       1.01959       1.10289       275.177
      0.31875       1.07766       1.11786       282.535
      0.61875       1.14844       1.10274       287.692
     0.671711      0.818751       1.16879       301.644
     0.804764       1.02617       1.17037       301.439
      0.31875       1.07682       1.16841       272.737
     0.674715      0.768605       1.20505       284.884
     0.505086      0.924693       1.21678       295.569
         0.81      0.918227       1.21834       298.629
     0.313691       1.05609       1.21647       284.753
     0.557801      0.783913      0.752575        308.51
     0.566195      0.783994      0.752597       305.521
     0.566207      0.894207      0.751151       306.132
     0.551481      0.732366      0.793432       293.215
     0.557769      0.726582      0.791968       308.878
     0.566169      0.726614      0.791879       306.622
     0.551562      0.782512      0.757904       291.059
         0.55      0.781558      0.768802       301.124
     0.550776      0.781011      0.780521       290.271
      0.55697      0.781685      0.787587       311.148
     0.551485      0.832127      0.792677       288.428
     0.733835      0.851465      0.754593       297.151
     0.250807       0.88138      0.754792       293.365
     0.266289      0.883563       0.76047       313.336
     0.550634      0.880991      0.756089       298.601
     0.266168       0.95085       0.79395       307.343
     0.433831      0.930896      0.788128       306.152
         0.25      0.968881      0.793725       307.837
     0.433817        1.0937      0.804893       278.262
      0.38125      0.696646      0.852673       301.189
      0.26619      0.750732      0.845453       307.121
     0.374796      0.757272       0.84501        293.58
     0.733827      0.813461      0.804824       299.123
     0.550633      0.894199      0.831575       297.371
     0.551476      0.882108       0.83067       290.921
     0.557733      0.881345      0.837302       304.871
     0.733799      0.886057      0.841401       300.791
      0.91875      0.942288      0.853012       266.419
     0.442194       1.03322      0.835486       301.601
     0.910454       1.00645      0.831373       302.568
     0.374805      0.695363      0.857743       298.961
         0.55      0.693964      0.881234       298.286
     0.551728      0.682369      0.891976       281.695
     0.550699      0.682653      0.879818       284.191
     0.557933      0.676311      0.890631       281.014
     0.566229      0.676524      0.890794        279.63
         0.85      0.682208      0.868984       297.893
     0.851715      0.733348      0.866122       281.001
     0.742175      0.801453      0.876985       309.922
     0.733746       0.80174      0.877534       306.843
      0.85174       0.79496      0.867234       280.428
     0.251744      0.828444      0.854821       287.165
     0.266189      0.833379      0.855045       275.807
     0.374822      0.830192      0.869242       291.409
     0.371728      0.818694      0.893791       303.808
         0.39      0.818751      0.893748       310.297
      0.55784      0.901975      0.883202       302.609
     0.566177       0.90199      0.883251       300.155
     0.733625      0.862705      0.883616       307.686
         0.85      0.856768      0.881343       300.245
     0.433794      0.937756      0.891247       313.442
         0.55      0.943675      0.868588       304.636
     0.551572      0.907561      0.881722       284.033
         0.55      0.918984      0.881632       300.211
         0.25      0.981658      0.855477       306.999
     0.910401      0.956387      0.881138        304.56
      0.61875       1.01624      0.890732       292.371
     0.612974       1.01723      0.895482       292.128
     0.913659       1.01825      0.890052        279.03
     0.617267       1.08262       0.90245       280.468
     0.913662       1.08124      0.890225       280.739
     0.374857      0.644642      0.944518        296.59
     0.851544       0.64522      0.917372       289.306
     0.866185      0.639723      0.918395       303.153
      0.56636      0.699715      0.945326       301.799
     0.674872      0.694123      0.945384       289.554
     0.566186      0.794434       0.95227       306.574
      0.68125      0.766523      0.927117       270.277
     0.675931      0.767807       0.93172       273.321
     0.251515      0.829974      0.905367       293.629
     0.266201       0.83563      0.903532       306.824
     0.386973      0.807459       0.91769       285.234
         0.25      0.981444      0.906302       307.601
     0.251552       1.02995      0.917143       292.437
     0.257861       1.03602      0.917751       306.876
     0.611295       1.08134      0.907394       294.917
         0.61       1.06875      0.943743        308.05
     0.618745       1.14179      0.928525       279.241
     0.613125         1.143      0.933438       282.562
     0.911666       1.13179       0.90566       295.591
     0.913184       1.13441      0.943571       283.665
      0.68125      0.652152      0.983822       286.841
      0.37494      0.654653      0.993763       294.468
      0.67368      0.655327      0.995096       294.934
     0.674887      0.656666        0.9828       294.721
     0.687424      0.657252      0.983142       289.608
     0.673648      0.732269      0.992442       294.595
     0.688563      0.731223      0.993061       294.584
     0.866198       0.74084       1.00023       300.999
         0.55      0.781346       0.96914       306.853
     0.672892      0.781278      0.968441        297.06
      0.67598      0.781762      0.980177       274.143
     0.311144       1.04289      0.981382       304.078
     0.433826       1.01619      0.990528       297.867
         0.61       1.13125      0.956257       306.189
     0.611296       1.11861      0.992566       292.645
     0.917268       1.11647      0.990977       283.042
     0.911657       1.11895      0.995042       291.227
      0.38125      0.691788       1.03045        253.38
     0.376165      0.690509       1.03371       282.689
     0.386875      0.691784       1.03434       283.643
      0.67188      0.681565       1.03098       301.732
     0.674826      0.693421       1.04225       289.099
     0.674805      0.731008       1.00514       297.275
      0.68747      0.730344       1.00479       289.596
      0.68125      0.735512       1.00434       285.106
     0.850586      0.729812       1.00666        292.94
      0.38125      0.796379       1.05519       255.689
     0.851577      0.782533       1.02051       288.942
         0.85      0.781529       1.03148       302.176
     0.857817      0.784192       1.01523       310.076
     0.310394        1.0317       1.00628       310.079
     0.795233       1.05631       1.02612       305.706
     0.910405       1.06887       1.04378       301.446
      0.68125      0.651884       1.09491       281.131
     0.370859      0.681882       1.08126       312.231
     0.371918      0.681828       1.09399       307.916
     0.389531      0.681026       1.09348       299.025
     0.674766      0.657344       1.09424       287.269
     0.674971      0.678259       1.09474       285.693
     0.686859      0.678251       1.09491           281
      0.68125      0.682195        1.0961       248.307
     0.851615       0.69496       1.06698       283.504
      0.37473      0.744159       1.06945       293.392
      0.38125      0.746392       1.06442       284.377
     0.387609      0.744785       1.06991       284.421
     0.371081      0.743295       1.08129       312.795
         0.39      0.743715        1.0814       301.205
     0.376167      0.797519       1.05867       284.235
         0.49      0.781252       1.06875        302.56
         0.51      0.781252       1.06875       305.608
     0.851549      0.768735       1.08023       285.057
     0.857842      0.768096       1.08646       302.264
     0.611531      0.967496       1.09431       294.306
      0.61875      0.977799       1.08904       275.585
     0.612987       0.97938       1.09446       284.299
     0.910959       1.01907       1.09329       297.863
      0.61875       1.08477       1.10309       288.947
     0.618728       1.13211       1.07961       254.071
     0.374729      0.679427        1.1045       297.501
      0.38125      0.676989        1.1091       287.875
     0.387085      0.679345       1.10449       284.308
     0.674864      0.680897       1.14252       291.605
     0.686974      0.681018       1.14259       285.165
     0.374786       0.73285       1.12964       295.116
      0.49513      0.726461       1.12765       307.671
     0.490164      0.732721        1.1295       289.781
      0.50487      0.726461       1.12765       306.884
     0.509836      0.732721        1.1295       282.384
     0.675981      0.743019       1.14523       277.143
         0.49      0.781227       1.13125       303.565
         0.51      0.781227       1.13125       298.111
     0.795479      0.803731       1.12936         275.4
     0.804521      0.803731       1.12936        275.12
     0.387082      0.805538       1.11758       277.149
     0.681251      0.803488       1.12956       281.251
      0.67294      0.805858       1.14422       299.002
     0.675985      0.804895       1.13333       278.464
     0.686974      0.805472       1.13336       283.504
     0.310466      0.869574       1.14419       308.476
     0.310401      0.893476       1.13098       310.507
     0.688555      0.856409       1.11912       294.365
     0.671831      0.869009       1.13114       302.655
     0.673685      0.881726       1.14304       294.394
     0.688167      0.881628       1.14308       292.713
     0.790165      0.867726       1.11818       281.658
     0.610401      0.956094       1.13107       303.569
     0.795258       1.02469       1.10678       301.298
     0.612975       1.08287       1.10785       289.768
     0.672895       0.74382        1.1566       298.938
      0.67464      0.830731       1.19271       290.195
     0.687201      0.830621       1.19275       283.997
     0.795133       0.82567       1.19571       296.324
     0.804867       0.82567       1.19571        295.22
     0.674779      0.880251       1.15567       291.609
     0.687106      0.880307       1.15549       285.307
      0.68125      0.885073       1.15549       275.542
     0.790009      0.880492       1.16822       291.362
     0.809991      0.880492       1.16822       294.809
     0.490421       1.01644       1.17887       285.731
     0.509579       1.01644       1.17887       277.975
      0.61297       1.00789       1.17969       290.346
      0.61875       1.00852        1.1847       291.655
     0.795236       1.02617       1.17037       302.161
     0.790162       1.03233       1.16898       285.874
     0.809838       1.03233       1.16898       283.369
      0.68125      0.768898        1.2104       271.451
     0.687147      0.768468        1.2051       283.523
     0.494914      0.924693       1.21678       296.854
     0.490154      0.931887       1.21881       283.117
     0.509846      0.931887       1.21881       281.875
         0.79      0.918227       1.21834       295.051
     0.490162      0.980539       1.23122        280.07
     0.495251      0.987443        1.2321         295.3
     0.509838      0.980539       1.23122       282.262
     0.504749      0.987443        1.2321       294.234
     0.795243      0.980062       1.22727       277.907
     0.790195      0.980725       1.23337       277.673
     0.804757      0.980062       1.22727       277.588
     0.809805      0.980725       1.23337       278.794
        0.558      0.856792      0.715111       275.927
         0.75       1.00625      0.706265       306.427
     0.556887      0.709912      0.753938       332.341
     0.256669      0.764109       0.75772       279.558
         0.75      0.906243      0.756256        304.03
         0.75      0.955768      0.756374       295.824
         0.45       1.00832      0.756804       281.376
         0.75       1.00578       0.75598       299.941
      0.55829      0.808469      0.795297       254.838
     0.256807      0.852479      0.808922       331.182
         0.75       0.85625       0.80625       301.237
         0.45      0.906288      0.806445        292.02
         0.75      0.905788      0.805969       291.266
         0.45      0.956246      0.806247       303.306
     0.911651      0.957722      0.806817       277.946
         0.45       1.00625      0.806254       304.125
     0.257084       1.05253      0.809286       321.273
         0.45        1.0562       0.80624        300.89
         0.75       1.05625      0.806267       305.279
     0.448551       1.10751      0.809123       282.365
     0.748875       1.10387      0.806898       273.282
     0.911601       1.10545      0.808658       281.766
         0.45       1.15612      0.806185       300.828
     0.557509      0.756839       0.86229        272.39
         0.75      0.806442      0.856163       288.975
         0.75      0.856198      0.856198       295.221
         0.45      0.906292      0.856266       301.298
      0.91383      0.908677      0.858668       263.188
     0.449329      0.955735      0.855596       284.029
     0.911571      0.956027      0.856179        296.96
     0.448116       1.00611      0.855193       278.561
     0.748835       1.00809      0.856104       269.203
      0.91022       1.00605      0.856206       306.076
         0.75       1.05625       0.85625       306.693
         0.91       1.05625       0.85625        308.84
     0.449237       1.10659      0.855147       288.052
         0.91        1.1062      0.856258       308.774
     0.858334      0.608631      0.896833       275.614
         0.75      0.806872      0.906029       290.052
       0.2583       0.85403      0.915471       259.619
         0.75      0.856292      0.906216       297.052
         0.45      0.906232       0.90623       303.146
      0.91263       0.90799      0.905992       281.195
     0.257502      0.955673      0.912759       271.063
     0.911231      0.955239      0.905667       292.575
     0.610693       1.00521      0.906753       302.525
     0.748791       1.00785      0.907614       268.195
     0.256336       1.05433      0.901992       334.308
         0.61       1.05619      0.906289       306.306
         0.75       1.05626      0.906253       305.812
     0.912759        1.0562      0.902811       274.704
     0.449154       1.10783      0.906542       279.617
     0.610007       1.10619      0.907031       299.079
         0.45       1.15505      0.906733       285.419
         0.91       1.15625      0.906565       308.426
         0.91       1.20619      0.906178        309.52
     0.856868      0.706084      0.962775        285.79
      0.55736      0.847293      0.959155       268.989
     0.558058      0.906349      0.947049       270.934
         0.61       0.95896      0.956219       291.701
         0.75      0.956837      0.956669       289.318
     0.913879      0.954491       0.95484       271.935
     0.311602        1.0068      0.958361       279.815
         0.75       1.00627      0.956291       301.937
     0.610431        1.0576      0.956414       306.559
      0.74858        1.0568      0.954862         282.8
         0.45       1.10625      0.956257       302.141
         0.61       1.10625       0.95625       301.837
     0.449325        1.1557      0.955994       284.481
         0.61       1.15619      0.956291       307.419
     0.912683       1.15475      0.957267       291.853
     0.857058       0.61355       1.00552       279.441
     0.556354      0.706754       1.00006       296.344
     0.505023      0.805732       1.01536       274.889
     0.858341       0.84751        1.0084       262.218
     0.312694      0.958374       1.00753       285.661
      0.44804      0.958747       1.00527       272.572
     0.804612      0.961169       1.01189       312.481
     0.913857       0.95879        1.0088        267.62
         0.31       1.00625       1.00592        310.81
         0.45       1.00625       1.00654       304.733
         0.31       1.05625       1.00626       311.892
         0.45       1.05626       1.00627       304.575
     0.804895       1.04936       1.00649        285.43
     0.312472       1.10396       1.00587       291.684
         0.45       1.10581       1.00653       301.105
     0.910481       1.10671       1.00633       302.037
         0.61       1.15579        1.0061       304.946
         0.91       1.15615       1.00629       306.265
     0.856546       0.66308       1.05484       278.183
     0.312727      0.906056       1.05819       288.618
     0.504734      0.914339       1.05852       273.955
     0.804467      0.897892       1.05849       270.714
         0.61      0.954737       1.05723       291.178
     0.911461      0.958074       1.05662       284.372
         0.45       1.00652       1.05566       294.406
     0.910681       1.00583       1.05675       297.054
         0.91       1.05626       1.05627       301.991
         0.31       1.10621       1.05626        310.86
     0.448034       1.10509       1.05494        271.01
         0.91       1.10624       1.05624       304.829
         0.61       1.15641       1.05643       299.712
     0.912528       1.15648        1.0538       285.722
     0.612672       1.20529       1.05771       282.864
     0.504967      0.710294       1.10291       314.346
     0.857069       0.71008       1.10323       314.914
     0.857287      0.804271       1.09808       263.101
         0.31      0.856957        1.1065       304.196
     0.311311      0.905141       1.10613       299.321
     0.612719      0.909455       1.10735       278.836
     0.610229      0.956207       1.10623       304.961
     0.612569        1.0071       1.10645       291.591
     0.804448       1.00978       1.09581       253.491
     0.911732       1.00553       1.10306       282.136
     0.312863       1.05917       1.10449       281.814
         0.61       1.05642       1.10692       302.153
         0.91       1.05635       1.10607       296.285
     0.310232       1.10613       1.10609       312.124
     0.611301       1.10536       1.10593       295.255
     0.310027       1.15458       1.10565       297.555
     0.612619       1.20627       1.10465       291.513
     0.504754      0.714451       1.15459       272.996
         0.31      0.906226       1.15626       312.047
     0.804257       0.90412       1.16877       243.616
     0.612438      0.957892       1.15636       285.213
      0.61024       1.00599       1.15608       304.122
     0.804726       1.01082       1.15315       311.512
     0.504905       1.05118       1.15324       319.551
         0.61       1.05621       1.15618       306.758
         0.31       1.10553       1.15493       300.019
         0.61        1.1062       1.15623       303.366
     0.805395       1.10547       1.15994       333.451
         0.31      0.859218       1.20328       283.893
     0.311158      0.906804       1.20617       303.924
         0.31       0.95625       1.20625       312.662
     0.804237      0.953786       1.21731       242.625
         0.31       1.00617       1.20648       310.995
     0.804917       1.01311       1.20643       286.419
         0.31       1.10569        1.2068       304.401
     0.804955       1.10271       1.20199        314.49
     0.504491      0.758564       1.24707       263.091
     0.505009       0.80611        1.2498       295.659
     0.804885      0.865901       1.25775       269.897
     0.312531      0.959409       1.25494       286.877
     0.311425        1.0064       1.25553       299.276
     0.503805      0.995877       1.25622       239.415
     0.311594        1.1072       1.25413        285.83
     0.504444      0.816806       1.30634       268.607
        0.805       1.04834       1.30586       283.721
     0.504476      0.853618       1.34708       266.625
     0.251979      0.895177      0.646347       277.062
     0.251966       0.90491      0.646377       276.997
         0.25       0.89416      0.656832        297.98
         0.25      0.894156       0.69375       304.376
         0.25      0.905844       0.69375       304.515
     0.742688       1.00851      0.664922       271.147
     0.742063       1.03719      0.693743       287.537
     0.558355      0.702908      0.741598       267.704
     0.551856      0.708469      0.742515       279.415
         0.55      0.743637      0.743865       305.217
     0.556456       0.74165      0.709193       327.285
         0.25      0.794233      0.744959       294.575
         0.55      0.755919      0.744089       299.762
     0.557786      0.799306        0.7493       320.486
         0.25      0.806303      0.744207       301.219
         0.25      0.843566      0.744784       297.472
     0.551655      0.807558      0.746317       274.152
         0.55      0.843846      0.743882       299.884
     0.558353      0.846767      0.717698       254.759
     0.742097      0.853097      0.742977       273.968
         0.25       0.89415      0.706255       304.517
     0.250846      0.856579      0.745096       290.952
         0.25      0.893756      0.743409       304.969
         0.55       0.85624      0.743806       303.609
     0.556385      0.887284      0.742077       281.515
     0.742952      0.893072       0.71418       276.938
         0.25      0.906244      0.743409       304.889
     0.250846      0.943421      0.745096       290.686
      0.74167      0.904114      0.715143       262.348
     0.442614       1.00332      0.747141       260.659
         0.25       1.00577      0.744959       294.444
     0.442808       1.03939      0.748963        318.94
     0.742014       1.03633      0.705898       281.295
     0.857184       0.69888      0.798169       317.994
         0.55      0.743755      0.756258       307.194
         0.55      0.743844      0.793266       303.474
     0.851031      0.707578      0.795099       280.609
         0.85      0.742827       0.79443       286.237
         0.25      0.793919      0.756518       303.292
         0.25      0.793863      0.793303       307.328
     0.551292       0.79579      0.758376       283.225
     0.550722      0.756537      0.793085       294.807
     0.556784      0.796131      0.789897       326.951
         0.85      0.793799      0.794414       288.504
         0.25      0.843688      0.756443       305.683
         0.25      0.806261      0.793752       310.002
         0.55      0.843754      0.756257        302.88
     0.551902      0.807402      0.790822       272.524
     0.743521      0.842445      0.762958       272.606
     0.743114      0.815175      0.792414       274.304
     0.850943      0.806287      0.793758       284.417
     0.851048       0.84494      0.796508       268.543
     0.251605      0.894723      0.753643       286.106
     0.257851      0.854354      0.784434       259.772
         0.55      0.856292      0.793734       305.028
         0.55       0.89375       0.79375       306.346
         0.85      0.855988      0.796232       275.339
         0.25      0.943854      0.756427       302.259
     0.257851      0.945646      0.784434       259.765
     0.442644      0.946637      0.765268       265.665
         0.55       0.90623      0.793757       305.532
      0.55742      0.934117      0.760045       269.004
     0.556321       0.94492      0.799346       299.412
     0.557754      0.938119      0.793297       300.297
         0.25       0.99372       0.75634       307.076
         0.25      0.993739      0.793752       310.174
     0.443628       0.95627      0.763666       283.461