#      face_x        face_y        face_z           CO2
     0.748539      0.857538      0.756497       288.234
     0.557814      0.747833      0.853327       309.594
     0.257991       0.96662      0.855041       278.158
     0.257794       0.96429      0.903364       308.805
     0.612926       1.00811      0.954911       299.598
     0.312852       1.05816        1.0564       294.718
     0.313318      0.859674       1.15537        288.37
     0.311458       1.05658       1.20625       302.426
     0.557745       0.89419       0.75114       309.327
     0.251533      0.842823      0.793507       294.544
     0.550632      0.844108      0.793936       304.956
     0.742187      0.851435      0.754611       297.054
     0.551473      0.893068      0.757303       295.769
     0.257843       0.95084       0.79388       310.461
     0.251533      0.957177      0.793507       294.237
     0.442011       1.09369      0.804892        279.11
     0.257841      0.750643      0.845653       310.583
         0.85      0.743755       0.84373       312.848
      0.25152      0.757168      0.845171       294.575
     0.387032      0.757376      0.845008       292.171
     0.742189      0.813446      0.804762        298.95
     0.742168      0.886074      0.841342       303.971
      0.25152       1.04283      0.845171       294.285
     0.387025      0.695481      0.857748       293.775
     0.551509      0.742262      0.855498       292.767
     0.257991       0.83338      0.855041       278.363
     0.850606      0.844184      0.892693       294.735
     0.442181      0.937768       0.89121       316.608
     0.912805      0.943511      0.857973        288.16
     0.913038       1.14399       0.89569       289.996
     0.387023      0.644593      0.944683       290.068
     0.556871      0.699653      0.945171       306.745
     0.687042      0.694287      0.945339       289.521
     0.550766       0.70684      0.943642       297.876
     0.387144       0.75756      0.905371       289.817
     0.557779      0.794387      0.952241       311.943
     0.257794       0.83571      0.903364        308.88
     0.851527      0.844176      0.903931       286.693
     0.910977       1.14409      0.943675       301.363
     0.911692       1.15509      0.943849       295.997
     0.386903      0.654712      0.993903       291.511
     0.688563      0.656299      0.994548       298.371
     0.551473      0.744246      0.993007       296.428
     0.689601      0.706093      0.956533       307.431
     0.857767      0.740785       1.00021       310.755
     0.551516       0.79322      0.958079       297.442
     0.687072      0.693273        1.0423       290.447
     0.851544      0.741663       1.00668       297.708
     0.611332       1.14507       1.04367       297.584
     0.611317        1.1553       1.04358       299.084
     0.687085      0.657312       1.09436       289.228
     0.495292      0.751244       1.05703       310.972
     0.386886      0.796112       1.05931       297.314
     0.912882       1.09175        1.0922        298.42
     0.611731       1.14388       1.09284       301.835
     0.912894       1.14246       1.05465       298.481
     0.686519      0.743018       1.14523       288.006
     0.689295      0.806348       1.14399       309.572
     0.495328      0.950399        1.1065       312.215
     0.612945      0.944867       1.14287       296.039
     0.310628       1.09398       1.10627       311.088
     0.612617       1.14314       1.10383       302.483
     0.688924      0.743857       1.15656       308.041
     0.795272      0.891955       1.16268       315.016
     0.804728      0.891955       1.16268       312.341
     0.311411      0.992369        1.1939        303.23
     0.311756       1.05676       1.19506       297.679
     0.312502      0.894726       1.20545        298.67
     0.795214      0.863849       1.24574        308.36
     0.804786      0.863849       1.24574       305.204
     0.313066      0.945485       1.24198       295.378
     0.795272      0.935403       1.20719       310.839
     0.804728      0.935403       1.20719       308.786
     0.311597      0.957384       1.24295       303.765
     0.266289      0.916437       0.76047        313.78
         0.75      0.968454       0.75598       294.686
     0.748267      0.968768      0.766286       275.587
     0.748463       1.01788       0.75756       286.676
     0.749356       1.00581      0.768134       293.036
     0.748562      0.819898      0.806476       289.326
      0.91875       1.00324      0.815161       282.634
     0.912967       1.00533      0.819908       287.116
     0.566202       0.74779      0.853612       308.334
     0.266189      0.966621      0.855045       277.399
     0.257861      0.763981      0.917751       307.653
     0.374667      0.757497      0.905367       298.416
     0.566241      0.760954      0.916255       309.361
     0.374928      0.807347      0.917673       289.037
     0.266201       0.96437      0.903532       307.704
      0.91875       1.01894      0.893224        247.84
      0.67188      0.705903      0.956575       310.319
     0.612941        1.0586      0.966908       296.843
         0.45       1.01863       1.00653       307.397
     0.804767       1.05631       1.02612       314.706
      0.31875       1.10848       1.01627       279.235
     0.312817       1.10405       1.01797       292.673
     0.449391       1.10475       1.01903       300.408
     0.617247       1.11711      0.997424       284.028
     0.910705       1.11886       1.00633       308.137
     0.374779      0.805665       1.11755       296.865
     0.672711      0.856324       1.11909       305.549
     0.809835      0.867726       1.11818       285.187
      0.31875      0.910704       1.11883        279.99
     0.312877      0.904916       1.11853       293.256
     0.610629      0.968756       1.10635       308.713
     0.804742       1.02469       1.10678       306.292
      0.91875       1.01967       1.10631       252.677
     0.913654       1.01959       1.10289       285.436
      0.31875       1.07766       1.11786       283.775
      0.61875       1.14844       1.10274       296.996
     0.671711      0.818751       1.16879       309.551
     0.804764       1.02617       1.17037       308.101
      0.31875       1.07682       1.16841       273.395
     0.674715      0.768605       1.20505       292.389
     0.505086      0.924693       1.21678       302.289
         0.81      0.918227       1.21834       296.494
     0.313691       1.05609       1.21647       285.174
     0.557801      0.783913      0.752575       311.709
     0.566195      0.783994      0.752597       308.305
     0.566207      0.894207      0.751151       308.585
     0.551481      0.732366      0.793432       295.725
     0.557769      0.726582      0.791968       311.161
     0.566169      0.726614      0.791879       308.558
     0.551562      0.782512      0.757904        295.13
         0.55      0.781558      0.768802       305.184
     0.550776      0.781011      0.780521       295.195
      0.55697      0.781685      0.787587       316.101
     0.551485      0.832127      0.792677       295.714
     0.733835      0.851465      0.754593        301.34
     0.250807       0.88138      0.754792       293.956
     0.266289      0.883563       0.76047       313.885
     0.550634      0.880991      0.756089       304.335
     0.266168       0.95085       0.79395       308.186
     0.433831      0.930896      0.788128       308.757
         0.25      0.968881      0.793725       308.936
     0.433817        1.0937      0.804893       278.897
      0.38125      0.696646      0.852673       302.911
      0.26619      0.750732      0.845453       308.365
     0.374796      0.757272       0.84501       297.028
     0.733827      0.813461      0.804824       303.925
     0.550633      0.894199      0.831575       304.012
     0.551476      0.882108       0.83067       296.227
     0.557733      0.881345      0.837302       309.985
     0.733799      0.886057      0.841401       303.964
      0.91875      0.942288      0.853012       267.808
     0.442194       1.03322      0.835486        304.74
     0.910454       1.00645      0.831373       303.668
     0.374805      0.695363      0.857743       301.112
         0.55      0.693964      0.881234       302.899
     0.551728      0.682369      0.891976       287.161
     0.550699      0.682653      0.879818        288.19
     0.557933      0.676311      0.890631       285.261
     0.566229      0.676524      0.890794       285.901
         0.85      0.682208      0.868984       303.773
     0.851715      0.733348      0.866122       290.852
     0.742175      0.801453      0.876985       317.006
     0.733746       0.80174      0.877534       314.232
      0.85174       0.79496      0.867234       290.346
     0.251744      0.828444      0.854821       289.361
     0.266189      0.833379      0.855045       277.558
     0.374822      0.830192      0.869242       295.929
     0.371728      0.818694      0.893791       308.616
         0.39      0.818751      0.893748       312.171
      0.55784      0.901975      0.883202       303.774
     0.566177       0.90199      0.883251       300.739
     0.733625      0.862705      0.883616       312.962
         0.85      0.856768      0.881343        303.34
     0.433794      0.937756      0.891247       315.988
         0.55      0.943675      0.868588       307.356
     0.551572      0.907561      0.881722       283.671
         0.55      0.918984      0.881632       300.614
         0.25      0.981658      0.855477       308.418
     0.910401      0.956387      0.881138       307.327
      0.61875       1.01624      0.890732       298.616
     0.612974       1.01723      0.895482       299.037
     0.913659       1.01825      0.890052       279.131
     0.617267       1.08262       0.90245       284.296
     0.913662       1.08124      0.890225       280.987
     0.374857      0.644642      0.944518       298.414
     0.851544       0.64522      0.917372       294.446
     0.866185      0.639723      0.918395       307.652
      0.56636      0.699715      0.945326       307.214
     0.674872      0.694123      0.945384       296.764
     0.566186      0.794434       0.95227       311.303
      0.68125      0.766523      0.927117       280.844
     0.675931      0.767807       0.93172       286.218
     0.251515      0.829974      0.905367       294.902
     0.266201       0.83563      0.903532       307.743
     0.386973      0.807459       0.91769       289.647
         0.25      0.981444      0.906302       308.311
     0.251552       1.02995      0.917143       293.583
     0.257861       1.03602      0.917751       307.937
     0.611295       1.08134      0.907394       299.663
         0.61       1.06875      0.943743       314.568
     0.618745       1.14179      0.928525       283.319
     0.613125         1.143      0.933438       287.255
     0.911666       1.13179       0.90566        296.85
     0.913184       1.13441      0.943571       284.853
      0.68125      0.652152      0.983822       293.503
      0.37494      0.654653      0.993763       296.015
      0.67368      0.655327      0.995096       302.998
     0.674887      0.656666        0.9828       301.664
     0.687424      0.657252      0.983142       293.179
     0.673648      0.732269      0.992442        302.79
     0.688563      0.731223      0.993061       299.507
     0.866198       0.74084       1.00023       306.436
         0.55      0.781346       0.96914       313.225
     0.672892      0.781278      0.968441       309.658
      0.67598      0.781762      0.980177       286.232
     0.311144       1.04289      0.981382       306.537
     0.433826       1.01619      0.990528       312.259
         0.61       1.13125      0.956257       310.194
     0.611296       1.11861      0.992566       298.128
     0.917268       1.11647      0.990977       284.947
     0.911657       1.11895      0.995042        295.81
      0.38125      0.691788       1.03045       255.147
     0.376165      0.690509       1.03371       284.819
     0.386875      0.691784       1.03434       292.844
      0.67188      0.681565       1.03098       311.931
     0.674826      0.693421       1.04225       297.952
     0.674805      0.731008       1.00514       304.073
      0.68747      0.730344       1.00479       294.652
      0.68125      0.735512       1.00434       290.392
     0.850586      0.729812       1.00666       302.075
      0.38125      0.796379       1.05519       256.632
     0.851577      0.782533       1.02051       299.212
         0.85      0.781529       1.03148       313.284
     0.857817      0.784192       1.01523       319.232
     0.310394        1.0317       1.00628       311.732
     0.795233       1.05631       1.02612       316.383
     0.910405       1.06887       1.04378       311.595
      0.68125      0.651884       1.09491       289.299
     0.370859      0.681882       1.08126       315.639
     0.371918      0.681828       1.09399       311.223
     0.389531      0.681026       1.09348       314.429
     0.674766      0.657344       1.09424       297.429
     0.674971      0.678259       1.09474       295.855
     0.686859      0.678251       1.09491       285.252
      0.68125      0.682195        1.0961       258.578
     0.851615       0.69496       1.06698       293.455
      0.37473      0.744159       1.06945       294.739
      0.38125      0.746392       1.06442       285.719
     0.387609      0.744785       1.06991       300.317
     0.371081      0.743295       1.08129       313.941
         0.39      0.743715        1.0814       316.079
     0.376167      0.797519       1.05867       285.138
         0.49      0.781252       1.06875       312.407
         0.51      0.781252       1.06875       307.096
     0.851549      0.768735       1.08023       297.501
     0.857842      0.768096       1.08646       314.091
     0.611531      0.967496       1.09431       301.703
      0.61875      0.977799       1.08904       281.552
     0.612987       0.97938       1.09446       292.207
     0.910959       1.01907       1.09329       307.678
      0.61875       1.08477       1.10309       298.878
     0.618728       1.13211       1.07961       263.425
     0.374729      0.679427        1.1045       300.353
      0.38125      0.676989        1.1091       290.489
     0.387085      0.679345       1.10449       300.395
     0.674864      0.680897       1.14252       296.722
     0.686974      0.681018       1.14259       291.459
     0.374786       0.73285       1.12964       297.184
      0.49513      0.726461       1.12765       313.765
     0.490164      0.732721        1.1295       296.582
      0.50487      0.726461       1.12765       306.952
     0.509836      0.732721        1.1295       287.328
     0.675981      0.743019       1.14523       283.098
         0.49      0.781227       1.13125       310.668
         0.51      0.781227       1.13125       303.435
     0.795479      0.803731       1.12936       284.927
     0.804521      0.803731       1.12936       284.015
     0.387082      0.805538       1.11758       299.771
     0.681251      0.803488       1.12956       288.039
      0.67294      0.805858       1.14422       306.478
     0.675985      0.804895       1.13333       285.311
     0.686974      0.805472       1.13336       293.558
     0.310466      0.869574       1.14419       310.262
     0.310401      0.893476       1.13098       311.988
     0.688555      0.856409       1.11912       303.384
     0.671831      0.869009       1.13114       311.628
     0.673685      0.881726       1.14304       303.117
     0.688167      0.881628       1.14308       301.082
     0.790165      0.867726       1.11818       290.557
     0.610401      0.956094       1.13107       312.155
     0.795258       1.02469       1.10678        308.77
     0.612975       1.08287       1.10785       299.628
     0.672895       0.74382        1.1566       304.608
      0.67464      0.830731       1.19271       295.391
     0.687201      0.830621       1.19275       294.506
     0.795133       0.82567       1.19571       305.171
     0.804867       0.82567       1.19571       293.782
     0.674779      0.880251       1.15567       299.904
     0.687106      0.880307       1.15549       294.597
      0.68125      0.885073       1.15549       283.781
     0.790009      0.880492       1.16822       302.121
     0.809991      0.880492       1.16822       289.546
     0.490421       1.01644       1.17887       290.581
     0.509579       1.01644       1.17887       290.564
      0.61297       1.00789       1.17969       297.494
      0.61875       1.00852        1.1847       298.387
     0.795236       1.02617       1.17037       309.703
     0.790162       1.03233       1.16898       293.472
     0.809838       1.03233       1.16898       291.217
      0.68125      0.768898        1.2104       279.805
     0.687147      0.768468        1.2051       295.461
     0.494914      0.924693       1.21678       303.267
     0.490154      0.931887       1.21881       292.904
     0.509846      0.931887       1.21881       294.081
         0.79      0.918227       1.21834       309.489
     0.490162      0.980539       1.23122       290.259
     0.495251      0.987443        1.2321       303.954
     0.509838      0.980539       1.23122       294.769
     0.504749      0.987443        1.2321       306.547
     0.795243      0.980062       1.22727       290.208
     0.790195      0.980725       1.23337       290.356
     0.804757      0.980062       1.22727       289.386
     0.809805      0.980725       1.23337       276.217
        0.558      0.856792      0.715111       279.921
         0.75       1.00625      0.706265       307.092
     0.556887      0.709912      0.753938       333.507
     0.256669      0.764109       0.75772       280.284
         0.75      0.906243      0.756256       304.367
         0.75      0.955768      0.756374       291.623
         0.45       1.00832      0.756804       290.337
         0.75       1.00578       0.75598       299.684
      0.55829      0.808469      0.795297        262.49
     0.256807      0.852479      0.808922        332.58
         0.75       0.85625       0.80625       309.706
         0.45      0.906288      0.806445       302.703
         0.75      0.905788      0.805969       298.572
         0.45      0.956246      0.806247       312.208
     0.911651      0.957722      0.806817       282.218
         0.45       1.00625      0.806254       311.333
     0.257084       1.05253      0.809286       321.981
         0.45        1.0562       0.80624       305.913
         0.75       1.05625      0.806267         303.1
     0.448551       1.10751      0.809123       283.674
     0.748875       1.10387      0.806898       265.116
     0.911601       1.10545      0.808658       283.566
         0.45       1.15612      0.806185       304.871
     0.557509      0.756839       0.86229       277.257
         0.75      0.806442      0.856163       298.986
         0.75      0.856198      0.856198       306.572
         0.45      0.906292      0.856266        306.55
      0.91383      0.908677      0.858668       265.687
     0.449329      0.955735      0.855596       291.646
     0.911571      0.956027      0.856179       300.334
     0.448116       1.00611      0.855193       282.417
     0.748835       1.00809      0.856104       262.323
      0.91022       1.00605      0.856206       306.655
         0.75       1.05625       0.85625       299.112
         0.91       1.05625       0.85625       305.252
     0.449237       1.10659      0.855147       286.488
         0.91        1.1062      0.856258       308.671
     0.858334      0.608631      0.896833        278.95
         0.75      0.806872      0.906029       289.414
       0.2583       0.85403      0.915471       260.511
         0.75      0.856292      0.906216       295.601
         0.45      0.906232       0.90623       302.404
      0.91263       0.90799      0.905992       285.158
     0.257502      0.955673      0.912759       272.007
     0.911231      0.955239      0.905667       295.594
     0.610693       1.00521      0.906753       310.265
     0.748791       1.00785      0.907614       267.069
     0.256336       1.05433      0.901992       335.287
         0.61       1.05619      0.906289        312.31
         0.75       1.05626      0.906253        298.99
     0.912759        1.0562      0.902811       274.221
     0.449154       1.10783      0.906542       283.411
     0.610007       1.10619      0.907031       303.502
         0.45       1.15505      0.906733       288.022
         0.91       1.15625      0.906565       308.814
         0.91       1.20619      0.906178       310.387
     0.856868      0.706084      0.962775       291.358
      0.55736      0.847293      0.959155       273.781
     0.558058      0.906349      0.947049       274.048
         0.61       0.95896      0.956219       297.312
         0.75      0.956837      0.956669       294.005
     0.913879      0.954491       0.95484       276.104
     0.311602        1.0068      0.958361       282.098
         0.75       1.00627      0.956291       312.201
     0.610431        1.0576      0.956414       313.033
      0.74858        1.0568      0.954862       287.355
         0.45       1.10625      0.956257        306.53
         0.61       1.10625       0.95625       309.627
     0.449325        1.1557      0.955994       288.302
         0.61       1.15619      0.956291       310.255
     0.912683       1.15475      0.957267       292.319
     0.857058       0.61355       1.00552       285.163
     0.556354      0.706754       1.00006       300.515
     0.505023      0.805732       1.01536       280.211
     0.858341       0.84751        1.0084       271.618
     0.312694      0.958374       1.00753       286.681
      0.44804      0.958747       1.00527       277.746
     0.804612      0.961169       1.01189       320.949
     0.913857       0.95879        1.0088       275.617
         0.31       1.00625       1.00592       312.326
         0.45       1.00625       1.00654       306.498
         0.31       1.05625       1.00626       314.181
         0.45       1.05626       1.00627       308.942
     0.804895       1.04936       1.00649       295.354
     0.312472       1.10396       1.00587       293.478
         0.45       1.10581       1.00653       308.461
     0.910481       1.10671       1.00633       310.532
         0.61       1.15579        1.0061       308.554
         0.91       1.15615       1.00629       310.085
     0.856546       0.66308       1.05484       285.142
     0.312727      0.906056       1.05819       289.916
     0.504734      0.914339       1.05852       279.915
     0.804467      0.897892       1.05849       278.862
         0.61      0.954737       1.05723        299.93
     0.911461      0.958074       1.05662       294.129
         0.45       1.00652       1.05566       299.437
     0.910681       1.00583       1.05675        306.27
         0.91       1.05626       1.05627       313.039
         0.31       1.10621       1.05626       313.412
     0.448034       1.10509       1.05494       275.126
         0.91       1.10624       1.05624       315.131
         0.61       1.15641       1.05643       306.258
     0.912528       1.15648        1.0538       293.117
     0.612672       1.20529       1.05771        287.03
     0.504967      0.710294       1.10291        322.11
     0.857069       0.71008       1.10323       324.461
     0.857287      0.804271       1.09808       274.277
         0.31      0.856957        1.1065       305.488
     0.311311      0.905141       1.10613       301.038
     0.612719      0.909455       1.10735       285.267
     0.610229      0.956207       1.10623       312.873
     0.612569        1.0071       1.10645        303.26
     0.804448       1.00978       1.09581       260.208
     0.911732       1.00553       1.10306        292.63
     0.312863       1.05917       1.10449       282.978
         0.61       1.05642       1.10692       310.209
         0.91       1.05635       1.10607       308.872
     0.310232       1.10613       1.10609       314.051
     0.611301       1.10536       1.10593       309.599
     0.310027       1.15458       1.10565       299.198
     0.612619       1.20627       1.10465       295.444
     0.504754      0.714451       1.15459       277.233
         0.31      0.906226       1.15626       313.454
     0.804257       0.90412       1.16877       252.647
     0.612438      0.957892       1.15636       296.481
      0.61024       1.00599       1.15608       312.561
     0.804726       1.01082       1.15315       318.908
     0.504905       1.05118       1.15324       322.126
         0.61       1.05621       1.15618       314.046
         0.31       1.10553       1.15493        300.92
         0.61        1.1062       1.15623        314.36
     0.805395       1.10547       1.15994       337.948
         0.31      0.859218       1.20328       285.375
     0.311158      0.906804       1.20617       305.964
         0.31       0.95625       1.20625       314.243
     0.804237      0.953786       1.21731       255.566
         0.31       1.00617       1.20648       311.818
     0.804917       1.01311       1.20643       294.702
         0.31       1.10569        1.2068       304.975
     0.804955       1.10271       1.20199       322.633
     0.504491      0.758564       1.24707       266.167
     0.505009       0.80611        1.2498       299.294
     0.804885      0.865901       1.25775       278.612
     0.312531      0.959409       1.25494       288.689
     0.311425        1.0064       1.25553       300.566
     0.503805      0.995877       1.25622       246.895
     0.311594        1.1072       1.25413       286.839
     0.504444      0.816806       1.30634       270.876
        0.805       1.04834       1.30586       287.238
     0.504476      0.853618       1.34708       268.064
     0.251979      0.895177      0.646347       277.453
     0.251966       0.90491      0.646377       277.335
         0.25       0.89416      0.656832       298.456
         0.25      0.894156       0.69375       305.049
         0.25      0.905844       0.69375       305.015
     0.742688       1.00851      0.664922       272.878
     0.742063       1.03719      0.693743       289.101
     0.558355      0.702908      0.741598       268.438
     0.551856      0.708469      0.742515         280.3
         0.55      0.743637      0.743865       307.302
     0.556456       0.74165      0.709193       327.858
         0.25      0.794233      0.744959       295.279
         0.55      0.755919      0.744089       302.213
     0.557786      0.799306        0.7493       325.401
         0.25      0.806303      0.744207       301.942
         0.25      0.843566      0.744784       297.986
     0.551655      0.807558      0.746317       280.587
         0.55      0.843846      0.743882       307.523
     0.558353      0.846767      0.717698       258.599
     0.742097      0.853097      0.742977        276.54
         0.25       0.89415      0.706255       305.038
     0.250846      0.856579      0.745096        291.47
         0.25      0.893756      0.743409        305.51
         0.55       0.85624      0.743806       310.162
     0.556385      0.887284      0.742077       286.322
     0.742952      0.893072       0.71418       282.427
         0.25      0.906244      0.743409        305.38
     0.250846      0.943421      0.745096       291.408
      0.74167      0.904114      0.715143       267.927
     0.442614       1.00332      0.747141       263.269
         0.25       1.00577      0.744959       295.174
     0.442808       1.03939      0.748963        319.88
     0.742014       1.03633      0.705898       283.245
     0.857184       0.69888      0.798169       322.197
         0.55      0.743755      0.756258       309.482
         0.55      0.743844      0.793266       306.261
     0.851031      0.707578      0.795099       285.713
         0.85      0.742827       0.79443       293.932
         0.25      0.793919      0.756518        304.22
         0.25      0.793863      0.793303       309.475
     0.551292       0.79579      0.758376       289.194
     0.550722      0.756537      0.793085       299.396
     0.556784      0.796131      0.789897       333.284
         0.85      0.793799      0.794414       294.393
         0.25      0.843688      0.756443       306.238
         0.25      0.806261      0.793752       311.746
         0.55      0.843754      0.756257         310.9
     0.551902      0.807402      0.790822       280.093
     0.743521      0.842445      0.762958        276.23
     0.743114      0.815175      0.792414       277.912
     0.850943      0.806287      0.793758       290.316
     0.851048       0.84494      0.796508       276.572
     0.251605      0.894723      0.753643       286.843
     0.257851      0.854354      0.784434       260.945
         0.55      0.856292      0.793734       312.107
         0.55       0.89375       0.79375       313.391
         0.85      0.855988      0.796232        283.41
         0.25      0.943854      0.756427       303.067
     0.257851      0.945646      0.784434       260.742
     0.442644      0.946637      0.765268       268.857
         0.55       0.90623      0.793757       312.324
      0.55742      0.934117      0.760045       273.591
     0.556321       0.94492      0.799346       302.223
     0.557754      0.938119      0.793297       303.108
         0.25       0.99372       0.75634        308.08
         0.25      0.993739      0.793752       311.166
     0.443628       0.95627      0.763666       286.855