#      face_x        face_y        face_z
     0.748539      0.857538      0.756497
     0.557814      0.747833      0.853327
     0.257991       0.96662      0.855041
     0.257794       0.96429      0.903364
     0.612926       1.00811      0.954911
     0.312852       1.05816        1.0564
     0.313318      0.859674       1.15537
     0.311458       1.05658       1.20625
     0.557745       0.89419       0.75114
     0.251533      0.842823      0.793507
     0.550632      0.844108      0.793936
     0.742187      0.851435      0.754611
     0.551473      0.893068      0.757303
     0.257843       0.95084       0.79388
     0.251533      0.957177      0.793507
     0.442011       1.09369      0.804892
     0.257841      0.750643      0.845653
         0.85      0.743755       0.84373
      0.25152      0.757168      0.845171
     0.387032      0.757376      0.845008
     0.742189      0.813446      0.804762
     0.742168      0.886074      0.841342
      0.25152       1.04283      0.845171
     0.387025      0.695481      0.857748
     0.551509      0.742262      0.855498
     0.257991       0.83338      0.855041
     0.850606      0.844184      0.892693
     0.442181      0.937768       0.89121
     0.912805      0.943511      0.857973
     0.913038       1.14399       0.89569
     0.387023      0.644593      0.944683
     0.556871      0.699653      0.945171
     0.687042      0.694287      0.945339
     0.550766       0.70684      0.943642
     0.387144       0.75756      0.905371
     0.557779      0.794387      0.952241
     0.257794       0.83571      0.903364
     0.851527      0.844176      0.903931
     0.910977       1.14409      0.943675
     0.911692       1.15509      0.943849
     0.386903      0.654712      0.993903
     0.688563      0.656299      0.994548
     0.551473      0.744246      0.993007
     0.689601      0.706093      0.956533
     0.857767      0.740785       1.00021
     0.551516       0.79322      0.958079
     0.687072      0.693273        1.0423
     0.851544      0.741663       1.00668
     0.611332       1.14507       1.04367
     0.611317        1.1553       1.04358
     0.687085      0.657312       1.09436
     0.495292      0.751244       1.05703
     0.386886      0.796112       1.05931
     0.912882       1.09175        1.0922
     0.611731       1.14388       1.09284
     0.912894       1.14246       1.05465
     0.686519      0.743018       1.14523
     0.689295      0.806348       1.14399
     0.495328      0.950399        1.1065
     0.612945      0.944867       1.14287
     0.310628       1.09398       1.10627
     0.612617       1.14314       1.10383
     0.688924      0.743857       1.15656
     0.795272      0.891955       1.16268
     0.804728      0.891955       1.16268
     0.311411      0.992369        1.1939
     0.311756       1.05676       1.19506
     0.312502      0.894726       1.20545
     0.795214      0.863849       1.24574
     0.804786      0.863849       1.24574
     0.313066      0.945485       1.24198
     0.795272      0.935403       1.20719
     0.804728      0.935403       1.20719
     0.311597      0.957384       1.24295
     0.266289      0.916437       0.76047
         0.75      0.968454       0.75598
     0.748267      0.968768      0.766286
     0.748463       1.01788       0.75756
     0.749356       1.00581      0.768134
     0.748562      0.819898      0.806476
      0.91875       1.00324      0.815161
     0.912967       1.00533      0.819908
     0.566202       0.74779      0.853612
     0.266189      0.966621      0.855045
     0.257861      0.763981      0.917751
     0.374667      0.757497      0.905367
     0.566241      0.760954      0.916255
     0.374928      0.807347      0.917673
     0.266201       0.96437      0.903532
      0.91875       1.01894      0.893224
      0.67188      0.705903      0.956575
     0.612941        1.0586      0.966908
         0.45       1.01863       1.00653
     0.804767       1.05631       1.02612
      0.31875       1.10848       1.01627
     0.312817       1.10405       1.01797
     0.449391       1.10475       1.01903
     0.617247       1.11711      0.997424
     0.910705       1.11886       1.00633
     0.374779      0.805665       1.11755
     0.672711      0.856324       1.11909
     0.809835      0.867726       1.11818
      0.31875      0.910704       1.11883
     0.312877      0.904916       1.11853
     0.610629      0.968756       1.10635
     0.804742       1.02469       1.10678
      0.91875       1.01967       1.10631
     0.913654       1.01959       1.10289
      0.31875       1.07766       1.11786
      0.61875       1.14844       1.10274
     0.671711      0.818751       1.16879
     0.804764       1.02617       1.17037
      0.31875       1.07682       1.16841
     0.674715      0.768605       1.20505
     0.505086      0.924693       1.21678
         0.81      0.918227       1.21834
     0.313691       1.05609       1.21647
     0.557801      0.783913      0.752575
     0.566195      0.783994      0.752597
     0.566207      0.894207      0.751151
     0.551481      0.732366      0.793432
     0.557769      0.726582      0.791968
     0.566169      0.726614      0.791879
     0.551562      0.782512      0.757904
         0.55      0.781558      0.768802
     0.550776      0.781011      0.780521
      0.55697      0.781685      0.787587
     0.551485      0.832127      0.792677
     0.733835      0.851465      0.754593
     0.250807       0.88138      0.754792
     0.266289      0.883563       0.76047
     0.550634      0.880991      0.756089
     0.266168       0.95085       0.79395
     0.433831      0.930896      0.788128
         0.25      0.968881      0.793725
     0.433817        1.0937      0.804893
      0.38125      0.696646      0.852673
      0.26619      0.750732      0.845453
     0.374796      0.757272       0.84501
     0.733827      0.813461      0.804824
     0.550633      0.894199      0.831575
     0.551476      0.882108       0.83067
     0.557733      0.881345      0.837302
     0.733799      0.886057      0.841401
      0.91875      0.942288      0.853012
     0.442194       1.03322      0.835486
     0.910454       1.00645      0.831373
     0.374805      0.695363      0.857743
         0.55      0.693964      0.881234
     0.551728      0.682369      0.891976
     0.550699      0.682653      0.879818
     0.557933      0.676311      0.890631
     0.566229      0.676524      0.890794
         0.85      0.682208      0.868984
     0.851715      0.733348      0.866122
     0.742175      0.801453      0.876985
     0.733746       0.80174      0.877534
      0.85174       0.79496      0.867234
     0.251744      0.828444      0.854821
     0.266189      0.833379      0.855045
     0.374822      0.830192      0.869242
     0.371728      0.818694      0.893791
         0.39      0.818751      0.893748
      0.55784      0.901975      0.883202
     0.566177       0.90199      0.883251
     0.733625      0.862705      0.883616
         0.85      0.856768      0.881343
     0.433794      0.937756      0.891247
         0.55      0.943675      0.868588
     0.551572      0.907561      0.881722
         0.55      0.918984      0.881632
         0.25      0.981658      0.855477
     0.910401      0.956387      0.881138
      0.61875       1.01624      0.890732
     0.612974       1.01723      0.895482
     0.913659       1.01825      0.890052
     0.617267       1.08262       0.90245
     0.913662       1.08124      0.890225
     0.374857      0.644642      0.944518
     0.851544       0.64522      0.917372
     0.866185      0.639723      0.918395
      0.56636      0.699715      0.945326
     0.674872      0.694123      0.945384
     0.566186      0.794434       0.95227
      0.68125      0.766523      0.927117
     0.675931      0.767807       0.93172
     0.251515      0.829974      0.905367
     0.266201       0.83563      0.903532
     0.386973      0.807459       0.91769
         0.25      0.981444      0.906302
     0.251552       1.02995      0.917143
     0.257861       1.03602      0.917751
     0.611295       1.08134      0.907394
         0.61       1.06875      0.943743
     0.618745       1.14179      0.928525
     0.613125         1.143      0.933438
     0.911666       1.13179       0.90566
     0.913184       1.13441      0.943571
      0.68125      0.652152      0.983822
      0.37494      0.654653      0.993763
      0.67368      0.655327      0.995096
     0.674887      0.656666        0.9828
     0.687424      0.657252      0.983142
     0.673648      0.732269      0.992442
     0.688563      0.731223      0.993061
     0.866198       0.74084       1.00023
         0.55      0.781346       0.96914
     0.672892      0.781278      0.968441
      0.67598      0.781762      0.980177
     0.311144       1.04289      0.981382
     0.433826       1.01619      0.990528
         0.61       1.13125      0.956257
     0.611296       1.11861      0.992566
     0.917268       1.11647      0.990977
     0.911657       1.11895      0.995042
      0.38125      0.691788       1.03045
     0.376165      0.690509       1.03371
     0.386875      0.691784       1.03434
      0.67188      0.681565       1.03098
     0.674826      0.693421       1.04225
     0.674805      0.731008       1.00514
      0.68747      0.730344       1.00479
      0.68125      0.735512       1.00434
     0.850586      0.729812       1.00666
      0.38125      0.796379       1.05519
     0.851577      0.782533       1.02051
         0.85      0.781529       1.03148
     0.857817      0.784192       1.01523
     0.310394        1.0317       1.00628
     0.795233       1.05631       1.02612
     0.910405       1.06887       1.04378
      0.68125      0.651884       1.09491
     0.370859      0.681882       1.08126
     0.371918      0.681828       1.09399
     0.389531      0.681026       1.09348
     0.674766      0.657344       1.09424
     0.674971      0.678259       1.09474
     0.686859      0.678251       1.09491
      0.68125      0.682195        1.0961
     0.851615       0.69496       1.06698
      0.37473      0.744159       1.06945
      0.38125      0.746392       1.06442
     0.387609      0.744785       1.06991
     0.371081      0.743295       1.08129
         0.39      0.743715        1.0814
     0.376167      0.797519       1.05867
         0.49      0.781252       1.06875
         0.51      0.781252       1.06875
     0.851549      0.768735       1.08023
     0.857842      0.768096       1.08646
     0.611531      0.967496       1.09431
      0.61875      0.977799       1.08904
     0.612987       0.97938       1.09446
     0.910959       1.01907       1.09329
      0.61875       1.08477       1.10309
     0.618728       1.13211       1.07961
     0.374729      0.679427        1.1045
      0.38125      0.676989        1.1091
     0.387085      0.679345       1.10449
     0.674864      0.680897       1.14252
     0.686974      0.681018       1.14259
     0.374786       0.73285       1.12964
      0.49513      0.726461       1.12765
     0.490164      0.732721        1.1295
      0.50487      0.726461       1.12765
     0.509836      0.732721        1.1295
     0.675981      0.743019       1.14523
         0.49      0.781227       1.13125
         0.51      0.781227       1.13125
     0.795479      0.803731       1.12936
     0.804521      0.803731       1.12936
     0.387082      0.805538       1.11758
     0.681251      0.803488       1.12956
      0.67294      0.805858       1.14422
     0.675985      0.804895       1.13333
     0.686974      0.805472       1.13336
     0.310466      0.869574       1.14419
     0.310401      0.893476       1.13098
     0.688555      0.856409       1.11912
     0.671831      0.869009       1.13114
     0.673685      0.881726       1.14304
     0.688167      0.881628       1.14308
     0.790165      0.867726       1.11818
     0.610401      0.956094       1.13107
     0.795258       1.02469       1.10678
     0.612975       1.08287       1.10785
     0.672895       0.74382        1.1566
      0.67464      0.830731       1.19271
     0.687201      0.830621       1.19275
     0.795133       0.82567       1.19571
     0.804867       0.82567       1.19571
     0.674779      0.880251       1.15567
     0.687106      0.880307       1.15549
      0.68125      0.885073       1.15549
     0.790009      0.880492       1.16822
     0.809991      0.880492       1.16822
     0.490421       1.01644       1.17887
     0.509579       1.01644       1.17887
      0.61297       1.00789       1.17969
      0.61875       1.00852        1.1847
     0.795236       1.02617       1.17037
     0.790162       1.03233       1.16898
     0.809838       1.03233       1.16898
      0.68125      0.768898        1.2104
     0.687147      0.768468        1.2051
     0.494914      0.924693       1.21678
     0.490154      0.931887       1.21881
     0.509846      0.931887       1.21881
         0.79      0.918227       1.21834
     0.490162      0.980539       1.23122
     0.495251      0.987443        1.2321
     0.509838      0.980539       1.23122
     0.504749      0.987443        1.2321
     0.795243      0.980062       1.22727
     0.790195      0.980725       1.23337
     0.804757      0.980062       1.22727
     0.809805      0.980725       1.23337
        0.558      0.856792      0.715111
         0.75       1.00625      0.706265
     0.556887      0.709912      0.753938
     0.256669      0.764109       0.75772
         0.75      0.906243      0.756256
         0.75      0.955768      0.756374
         0.45       1.00832      0.756804
         0.75       1.00578       0.75598
      0.55829      0.808469      0.795297
     0.256807      0.852479      0.808922
         0.75       0.85625       0.80625
         0.45      0.906288      0.806445
         0.75      0.905788      0.805969
         0.45      0.956246      0.806247
     0.911651      0.957722      0.806817
         0.45       1.00625      0.806254
     0.257084       1.05253      0.809286
         0.45        1.0562       0.80624
         0.75       1.05625      0.806267
     0.448551       1.10751      0.809123
     0.748875       1.10387      0.806898
     0.911601       1.10545      0.808658
         0.45       1.15612      0.806185
     0.557509      0.756839       0.86229
         0.75      0.806442      0.856163
         0.75      0.856198      0.856198
         0.45      0.906292      0.856266
      0.91383      0.908677      0.858668
     0.449329      0.955735      0.855596
     0.911571      0.956027      0.856179
     0.448116       1.00611      0.855193
     0.748835       1.00809      0.856104
      0.91022       1.00605      0.856206
         0.75       1.05625       0.85625
         0.91       1.05625       0.85625
     0.449237       1.10659      0.855147
         0.91        1.1062      0.856258
     0.858334      0.608631      0.896833
         0.75      0.806872      0.906029
       0.2583       0.85403      0.915471
         0.75      0.856292      0.906216
         0.45      0.906232       0.90623
      0.91263       0.90799      0.905992
     0.257502      0.955673      0.912759
     0.911231      0.955239      0.905667
     0.610693       1.00521      0.906753
     0.748791       1.00785      0.907614
     0.256336       1.05433      0.901992
         0.61       1.05619      0.906289
         0.75       1.05626      0.906253
     0.912759        1.0562      0.902811
     0.449154       1.10783      0.906542
     0.610007       1.10619      0.907031
         0.45       1.15505      0.906733
         0.91       1.15625      0.906565
         0.91       1.20619      0.906178
     0.856868      0.706084      0.962775
      0.55736      0.847293      0.959155
     0.558058      0.906349      0.947049
         0.61       0.95896      0.956219
         0.75      0.956837      0.956669
     0.913879      0.954491       0.95484
     0.311602        1.0068      0.958361
         0.75       1.00627      0.956291
     0.610431        1.0576      0.956414
      0.74858        1.0568      0.954862
         0.45       1.10625      0.956257
         0.61       1.10625       0.95625
     0.449325        1.1557      0.955994
         0.61       1.15619      0.956291
     0.912683       1.15475      0.957267
     0.857058       0.61355       1.00552
     0.556354      0.706754       1.00006
     0.505023      0.805732       1.01536
     0.858341       0.84751        1.0084
     0.312694      0.958374       1.00753
      0.44804      0.958747       1.00527
     0.804612      0.961169       1.01189
     0.913857       0.95879        1.0088
         0.31       1.00625       1.00592
         0.45       1.00625       1.00654
         0.31       1.05625       1.00626
         0.45       1.05626       1.00627
     0.804895       1.04936       1.00649
     0.312472       1.10396       1.00587
         0.45       1.10581       1.00653
     0.910481       1.10671       1.00633
         0.61       1.15579        1.0061
         0.91       1.15615       1.00629
     0.856546       0.66308       1.05484
     0.312727      0.906056       1.05819
     0.504734      0.914339       1.05852
     0.804467      0.897892       1.05849
         0.61      0.954737       1.05723
     0.911461      0.958074       1.05662
         0.45       1.00652       1.05566
     0.910681       1.00583       1.05675
         0.91       1.05626       1.05627
         0.31       1.10621       1.05626
     0.448034       1.10509       1.05494
         0.91       1.10624       1.05624
         0.61       1.15641       1.05643
     0.912528       1.15648        1.0538
     0.612672       1.20529       1.05771
     0.504967      0.710294       1.10291
     0.857069       0.71008       1.10323
     0.857287      0.804271       1.09808
         0.31      0.856957        1.1065
     0.311311      0.905141       1.10613
     0.612719      0.909455       1.10735
     0.610229      0.956207       1.10623
     0.612569        1.0071       1.10645
     0.804448       1.00978       1.09581
     0.911732       1.00553       1.10306
     0.312863       1.05917       1.10449
         0.61       1.05642       1.10692
         0.91       1.05635       1.10607
     0.310232       1.10613       1.10609
     0.611301       1.10536       1.10593
     0.310027       1.15458       1.10565
     0.612619       1.20627       1.10465
     0.504754      0.714451       1.15459
         0.31      0.906226       1.15626
     0.804257       0.90412       1.16877
     0.612438      0.957892       1.15636
      0.61024       1.00599       1.15608
     0.804726       1.01082       1.15315
     0.504905       1.05118       1.15324
         0.61       1.05621       1.15618
         0.31       1.10553       1.15493
         0.61        1.1062       1.15623
     0.805395       1.10547       1.15994
         0.31      0.859218       1.20328
     0.311158      0.906804       1.20617
         0.31       0.95625       1.20625
     0.804237      0.953786       1.21731
         0.31       1.00617       1.20648
     0.804917       1.01311       1.20643
         0.31       1.10569        1.2068
     0.804955       1.10271       1.20199
     0.504491      0.758564       1.24707
     0.505009       0.80611        1.2498
     0.804885      0.865901       1.25775
     0.312531      0.959409       1.25494
     0.311425        1.0064       1.25553
     0.503805      0.995877       1.25622
     0.311594        1.1072       1.25413
     0.504444      0.816806       1.30634
        0.805       1.04834       1.30586
     0.504476      0.853618       1.34708
     0.251979      0.895177      0.646347
     0.251966       0.90491      0.646377
         0.25       0.89416      0.656832
         0.25      0.894156       0.69375
         0.25      0.905844       0.69375
     0.742688       1.00851      0.664922
     0.742063       1.03719      0.693743
     0.558355      0.702908      0.741598
     0.551856      0.708469      0.742515
         0.55      0.743637      0.743865
     0.556456       0.74165      0.709193
         0.25      0.794233      0.744959
         0.55      0.755919      0.744089
     0.557786      0.799306        0.7493
         0.25      0.806303      0.744207
         0.25      0.843566      0.744784
     0.551655      0.807558      0.746317
         0.55      0.843846      0.743882
     0.558353      0.846767      0.717698
     0.742097      0.853097      0.742977
         0.25       0.89415      0.706255
     0.250846      0.856579      0.745096
         0.25      0.893756      0.743409
         0.55       0.85624      0.743806
     0.556385      0.887284      0.742077
     0.742952      0.893072       0.71418
         0.25      0.906244      0.743409
     0.250846      0.943421      0.745096
      0.74167      0.904114      0.715143
     0.442614       1.00332      0.747141
         0.25       1.00577      0.744959
     0.442808       1.03939      0.748963
     0.742014       1.03633      0.705898
     0.857184       0.69888      0.798169
         0.55      0.743755      0.756258
         0.55      0.743844      0.793266
     0.851031      0.707578      0.795099
         0.85      0.742827       0.79443
         0.25      0.793919      0.756518
         0.25      0.793863      0.793303
     0.551292       0.79579      0.758376
     0.550722      0.756537      0.793085
     0.556784      0.796131      0.789897
         0.85      0.793799      0.794414
         0.25      0.843688      0.756443
         0.25      0.806261      0.793752
         0.55      0.843754      0.756257
     0.551902      0.807402      0.790822
     0.743521      0.842445      0.762958
     0.743114      0.815175      0.792414
     0.850943      0.806287      0.793758
     0.851048       0.84494      0.796508
     0.251605      0.894723      0.753643
     0.257851      0.854354      0.784434
         0.55      0.856292      0.793734
         0.55       0.89375       0.79375
         0.85      0.855988      0.796232
         0.25      0.943854      0.756427
     0.257851      0.945646      0.784434
     0.442644      0.946637      0.765268
         0.55       0.90623      0.793757
      0.55742      0.934117      0.760045
     0.556321       0.94492      0.799346
     0.557754      0.938119      0.793297
         0.25       0.99372       0.75634
         0.25      0.993739      0.793752
     0.443628       0.95627      0.763666
     0.443729       1.00117      0.756557
     0.556252      0.957256      0.797363
     0.741764       1.00132      0.791877
         0.25       1.00614      0.793303
     0.256669       1.03589       0.75772
     0.257254       1.04228      0.800933
     0.741741       1.04144      0.767616
     0.442106       1.10835      0.803685
     0.443696       1.18591      0.793811
         0.85      0.594305       0.84606
         0.85      0.606273      0.845972
     0.856892      0.641504      0.847855
         0.55        0.6938      0.843821
     0.557149      0.697599      0.810789
     0.556807      0.658952      0.845528
     0.851829      0.696584      0.807908
         0.85      0.693935       0.84383
     0.257084      0.747475      0.809286
     0.257854      0.746359      0.855305
     0.388734      0.744201      0.844094
         0.55      0.743944      0.805472
         0.55      0.706254      0.843757
     0.551473      0.741155       0.84255
         0.85      0.743791       0.80623
         0.85      0.706302      0.843757
         0.25      0.793784      0.806263
         0.25      0.793723      0.843818
         0.39      0.793719      0.843882
     0.742956      0.794272      0.813363
         0.85        0.7938      0.806402
         0.85      0.756254      0.843742
         0.85       0.79375      0.843726
     0.250762      0.842582      0.806685
         0.25      0.806155      0.843575
     0.256303      0.840804      0.839437
         0.39      0.805651       0.84407
     0.550632      0.845182      0.806467
     0.558354      0.846888      0.833412
     0.743526      0.804938      0.812671
         0.85      0.843745      0.806671
         0.85      0.806256      0.843732
         0.85       0.84373      0.843758
         0.55      0.893754      0.806243
     0.550627      0.895265       0.84409
     0.558004      0.856822      0.835032
     0.742203      0.892619      0.831393
         0.85      0.856056      0.843802
      0.85633      0.893551      0.850492
     0.550647      0.943611      0.806928
         0.55      0.906452      0.843687
         0.55      0.943732      0.843744
         0.25      0.993744      0.806253
         0.25      0.993845      0.843575
     0.256303      0.959196      0.839437
         0.55      0.956043      0.843703
     0.556591      0.985867      0.807963
     0.742693       1.00155      0.845464
      0.91126      0.956617      0.844613
         0.91      0.993748      0.843761
     0.251136       1.04291      0.807865
         0.25       1.00628      0.843818
     0.442143        1.0454       0.83388
     0.911524       1.04287      0.807582
         0.91       1.00625      0.843761
         0.91       1.04375      0.843755
     0.443083       1.05625      0.836878
         0.91       1.09373       0.80919
         0.91       1.05625      0.843761
         0.91       1.09374      0.843757
         0.91       1.10614      0.843799
     0.442682         1.185      0.803932
     0.442946       1.15623      0.838295
         0.85      0.594301      0.856643
     0.857162      0.598001      0.888975
      0.38735      0.644751      0.893934
     0.850833      0.643974      0.856829
     0.851805      0.607778      0.891345
         0.85      0.643837      0.893655
     0.388402      0.658304      0.857233
         0.39       0.65681      0.893845
     0.389534      0.693383      0.893756
         0.55      0.693758      0.856266
         0.55      0.694094      0.893811
         0.85      0.693817      0.856283
         0.85      0.656204      0.893723
     0.858113      0.690046      0.885433
     0.857868      0.683444      0.892485
      0.25165      0.745764      0.859209
         0.25       0.74449      0.892659
      0.38833      0.708539      0.858115
         0.39      0.743734       0.85636
     0.389534      0.705868       0.89373
         0.39      0.743717      0.893693
         0.55      0.706274       0.89375
         0.55      0.743538      0.893711
         0.85      0.744819      0.855598
       0.3893      0.756289      0.856279
         0.39      0.793728      0.856267
     0.389543       0.75631      0.893622
         0.39      0.793762      0.893711
         0.55      0.755203       0.89359
         0.85      0.793163      0.855492
     0.857296      0.757744      0.886262
         0.25      0.806218      0.893755
     0.256888      0.834027      0.891108
         0.39      0.805958      0.856421
         0.39      0.806258       0.89373
         0.39      0.843709      0.893763
         0.85      0.843744      0.856254
     0.857329      0.814743      0.891165
     0.386005      0.856108      0.860065
         0.39      0.855747      0.893767
     0.442879      0.860797      0.859037
     0.443057      0.862923      0.893705
         0.55      0.895857      0.855962
     0.556956      0.899226      0.898383
     0.742094      0.884302      0.856537
         0.85      0.893205      0.858328
         0.85      0.857027      0.894289
         0.85      0.893253      0.893671
     0.442313      0.943598      0.882217
         0.55       0.94353      0.856001
     0.550679      0.908074      0.895091
         0.55      0.943735      0.893736
         0.85        0.9039      0.893464
     0.912619      0.906828      0.893867
         0.91      0.943685      0.893713
         0.25       0.99375      0.856088
         0.25      0.993782      0.893755
     0.256888      0.965973      0.891108
         0.55      0.956108      0.893636
     0.557297      0.985204      0.891967
     0.611384      0.994884      0.893686
     0.742699       1.00123      0.854862
         0.91       0.99375       0.85625
     0.911564      0.956465      0.893443
     0.911398      0.995001      0.894121
     0.612748        1.0045      0.895603
         0.61       1.04386      0.893927
     0.742738       1.00761      0.900459
         0.91       1.04375       0.85625
     0.912782       1.00503      0.892274
     0.911375       1.04315      0.892992
         0.25       1.05551      0.892659
     0.443669       1.09994      0.893818
         0.61       1.05603      0.893886
         0.91       1.09375       0.85625
         0.91       1.05625      0.892865
     0.912755       1.09503      0.890707
     0.612721       1.10726      0.897044
     0.743052       1.10124      0.860104
     0.743196       1.10379       0.89056
     0.911374       1.10571      0.893185
     0.912492       1.15653      0.895611
         0.91       1.19384      0.894308
         0.91       1.20623      0.894251
     0.914132       1.24011      0.893638
     0.387269      0.593752      0.947948
     0.387377      0.644307      0.906256
     0.850674      0.644303      0.904539
         0.85      0.644089      0.943824
         0.39      0.656755      0.906261
     0.389301      0.693755      0.906204
     0.389509      0.655987      0.943968
         0.55      0.693966      0.906277
       0.5559      0.692547      0.939171
         0.85      0.656283      0.943776
     0.857926      0.685557      0.944012
     0.389309      0.706337      0.905939
     0.388762      0.744851      0.906737
         0.55      0.743464      0.906251
         0.55      0.743754      0.943746
     0.687116      0.707461      0.908927
     0.688432      0.706352      0.944319
         0.69       0.74371      0.943825
         0.25      0.793752      0.906735
         0.25      0.793917       0.94348
     0.256637      0.764051      0.941918
         0.39      0.793888      0.905775