/*--------------------------------*- C++ -*----------------------------------*\
  =========                 |
  \\      /  F ield         | OpenFOAM: The Open Source CFD Toolbox
   \\    /   O peration     | Website:  https://openfoam.org
    \\  /    A nd           | Version:  10
     \\/     M anipulation  |
\*---------------------------------------------------------------------------*/
FoamFile
{
    format      ascii;
    class       volScalarField;
    location    "68";
    object      epsilon;
}
// * * * * * * * * * * * * * * * * * * * * * * * * * * * * * * * * * * * * * //

dimensions      [0 2 -3 0 0 0 0];

internalField   nonuniform List<scalar> 
127913
(
0.00055359
0.00060215
0.000652703
0.000705081
0.000759143
0.000814734
0.000871688
0.000929823
0.000988955
0.00104889
0.00110943
0.00117037
0.00123151
0.00129262
0.00135349
0.0014139
0.00147364
0.00153248
0.0015902
0.0016466
0.00170147
0.00175461
0.00180582
0.00185494
0.00190181
0.00194626
0.00198818
0.00202746
0.00206401
0.00209776
0.00212867
0.00215672
0.00218191
0.00220428
0.00222392
0.0022402
0.000553129
0.000600652
0.000649675
0.000700069
0.000751725
0.00080453
0.000858364
0.000913098
0.000968601
0.00102474
0.00108136
0.00113834
0.00119551
0.00125273
0.00130984
0.00136668
0.00142308
0.00147888
0.00153392
0.00158802
0.00164102
0.00169276
0.00174308
0.00179182
0.00183885
0.00188402
0.00192721
0.00196831
0.00200722
0.00204386
0.00207817
0.0021101
0.00213962
0.00216674
0.00219148
0.00221329
0.0005531
0.000600566
0.000649494
0.000699759
0.00075125
0.000803856
0.000857458
0.000911932
0.000967151
0.00102299
0.0010793
0.00113596
0.00119282
0.00124974
0.00130656
0.00136314
0.00141931
0.00147494
0.00152985
0.00158389
0.00163692
0.00168877
0.00173931
0.00178839
0.00183588
0.00188166
0.00192562
0.00196765
0.00200767
0.0020456
0.00208138
0.00211498
0.00214635
0.00217549
0.00220242
0.0022266
0.000553081
0.000600512
0.000649392
0.000699603
0.000751037
0.000803585
0.000857129
0.00091155
0.000966721
0.00102251
0.00107879
0.00113543
0.00119227
0.00124919
0.00130602
0.00136261
0.00141882
0.00147449
0.00152946
0.00158358
0.00163669
0.00168864
0.0017393
0.00178853
0.00183619
0.00188216
0.00192634
0.00196863
0.00200894
0.0020472
0.00208335
0.00211736
0.00214919
0.00217884
0.00220633
0.00223115
0.000553078
0.000600505
0.000649379
0.000699585
0.000751019
0.000803572
0.000857127
0.000911565
0.000966762
0.00102259
0.00107891
0.0011356
0.00119251
0.00124949
0.00130641
0.00136311
0.00141943
0.00147521
0.00153031
0.00158456
0.0016378
0.0016899
0.00174069
0.00179005
0.00183785
0.00188395
0.00192826
0.00197067
0.00201109
0.00204946
0.00208572
0.00211983
0.00215175
0.00218149
0.00220907
0.00223395
0.000553077
0.0006005
0.000649369
0.00069957
0.000751002
0.000803558
0.000857123
0.000911578
0.000966717
0.00102243
0.00107863
0.00113523
0.00119215
0.00124925
0.00130629
0.00136314
0.00141962
0.00147558
0.00153087
0.00158531
0.00163876
0.00169107
0.00174207
0.00179164
0.00183964
0.00188594
0.00193044
0.00197302
0.00201361
0.00205214
0.00208853
0.00212276
0.00215479
0.00218461
0.00221227
0.00223723
0.000553077
0.000600501
0.000649372
0.00069958
0.000751026
0.000803604
0.000857122
0.000911395
0.000966319
0.00102181
0.00107778
0.00113417
0.00119091
0.00124792
0.00130513
0.0013622
0.00141893
0.00147516
0.00153073
0.00158547
0.00163923
0.00169184
0.00174316
0.00179304
0.00184135
0.00188795
0.00193273
0.00197559
0.00201644
0.00205521
0.00209182
0.00212625
0.00215845
0.00218843
0.00221622
0.00224126
0.000553077
0.000600503
0.000649379
0.000699598
0.00075106
0.000803545
0.000856859
0.000910891
0.000965547
0.00102075
0.00107643
0.00113254
0.00118901
0.0012458
0.00130282
0.00136002
0.00141705
0.0014736
0.00152951
0.0015846
0.00163873
0.00169172
0.00174342
0.00179368
0.00184237
0.00188934
0.00193449
0.0019777
0.00201888
0.00205796
0.00209487
0.00212957
0.00216202
0.00219223
0.00222022
0.00224545
0.000553078
0.000600507
0.00064939
0.000699621
0.000751009
0.00080331
0.000856396
0.000910163
0.000964528
0.00101942
0.0010748
0.00113061
0.00118681
0.00124337
0.00130022
0.00135731
0.00141455
0.00147146
0.00152776
0.00158326
0.00163781
0.00169123
0.00174336
0.00179406
0.00184318
0.00189059
0.00193615
0.00197977
0.00202135
0.00206079
0.00209805
0.00213308
0.00216583
0.00219631
0.00222454
0.00224997
0.000553079
0.000600511
0.000649403
0.000699624
0.000750857
0.000802951
0.000855783
0.000909256
0.000963295
0.00101785
0.00107288
0.00112836
0.00118425
0.00124054
0.00129718
0.00135412
0.0014113
0.0014686
0.0015253
0.00158123
0.00163623
0.00169011
0.00174271
0.00179388
0.00184347
0.00189134
0.00193737
0.00198143
0.00202343
0.00206329
0.00210094
0.00213633
0.00216943
0.00220022
0.00222874
0.00225443
0.00055308
0.000600516
0.000649415
0.000699523
0.000750588
0.00080246
0.000855019
0.000908176
0.000961869
0.00101606
0.00107072
0.00112585
0.00118142
0.00123742
0.00129384
0.00135062
0.00140773
0.00146506
0.00152221
0.0015786
0.00163408
0.00168845
0.00174156
0.00179323
0.00184333
0.0018917
0.00193822
0.00198276
0.00202523
0.00206553
0.00210361
0.0021394
0.00217287
0.00220402
0.00223286
0.00225882
0.000553081
0.000600521
0.000649423
0.000699409
0.000750296
0.000801933
0.000854205
0.00090703
0.000960359
0.00101417
0.00106844
0.00112319
0.00117842
0.00123412
0.0012903
0.00134691
0.00140392
0.00146125
0.0015188
0.00157564
0.00163159
0.00168644
0.00174004
0.00179222
0.00184282
0.00189169
0.00193869
0.00198372
0.00202665
0.00206741
0.00210592
0.00214212
0.00217598
0.00220748
0.00223666
0.00226291
0.000553082
0.000600525
0.000649354
0.000699217
0.000749924
0.000801324
0.000853306
0.000905798
0.000958761
0.00101219
0.00106608
0.00112045
0.00117533
0.00123072
0.00128664
0.00134307
0.00139996
0.00145727
0.0015149
0.00157219
0.0016286
0.00168394
0.00173803
0.00179071
0.0018418
0.00189117
0.00193867
0.00198418
0.00202759
0.0020688
0.00210775
0.00214437
0.00217862
0.0022105
0.00224002
0.00226658
0.000553083
0.000600528
0.000649286
0.000699029
0.000749561
0.000800731
0.000852433
0.000904602
0.000957212
0.00101026
0.00106378
0.00111779
0.00117233
0.00122742
0.00128308
0.00133932
0.0013961
0.00145337
0.00151105
0.00156875
0.00162558
0.00168135
0.00173589
0.00178902
0.00184058
0.0018904
0.00193836
0.00198431
0.00202816
0.0020698
0.00210915
0.00214616
0.00218079
0.00221302
0.00224287
0.00226973
0.000553084
0.000600531
0.000649224
0.000698857
0.000749229
0.00080019
0.000851636
0.000903511
0.000955799
0.00100851
0.00106169
0.00111536
0.00116958
0.00122439
0.00127981
0.00133585
0.00139249
0.0014497
0.00150738
0.00156541
0.00162262
0.00167878
0.00173372
0.00178725
0.0018392
0.00188943
0.00193779
0.00198414
0.00202838
0.00207039
0.00211011
0.00214748
0.00218244
0.00221498
0.00224513
0.00227226
0.000553085
0.000600533
0.000649172
0.000698712
0.000748951
0.000799736
0.000850967
0.000902597
0.000954616
0.00100705
0.00105993
0.00111333
0.00116729
0.00122186
0.00127707
0.00133295
0.00138949
0.00144664
0.00150434
0.00156247
0.00161998
0.00167646
0.00173172
0.00178558
0.00183788
0.00188845
0.00193714
0.00198383
0.00202839
0.00207073
0.00211076
0.00214841
0.00218366
0.00221647
0.00224687
0.00227422
0.000553085
0.000600535
0.000649134
0.000698606
0.000748747
0.000799403
0.000850478
0.000901928
0.00095375
0.00100598
0.00105865
0.00111184
0.00116559
0.00121997
0.00127502
0.00133075
0.00138717
0.00144424
0.00150189
0.00156
0.00161774
0.00167445
0.00172995
0.00178406
0.00183661
0.00188742
0.00193637
0.0019833
0.0020281
0.00207068
0.00211094
0.00214882
0.00218428
0.00221729
0.00224789
0.00227542
0.000553085
0.000600536
0.000649113
0.000698548
0.000748635
0.00079922
0.000850209
0.000901561
0.000953276
0.00100539
0.00105795
0.00111103
0.00116469
0.00121898
0.00127395
0.00132962
0.001386
0.00144305
0.00150071
0.00155886
0.00161671
0.00167354
0.00172916
0.00178339
0.00183606
0.001887
0.00193608
0.00198314
0.00202807
0.00207076
0.00211115
0.00214915
0.00218472
0.00221784
0.00224854
0.00227617
0.000553085
0.000600536
0.000649111
0.000698542
0.000748624
0.000799202
0.000850181
0.000901521
0.000953224
0.00100532
0.00105787
0.00111093
0.00116456
0.00121882
0.00127376
0.00132939
0.00138571
0.0014427
0.0015003
0.00155837
0.00161624
0.00167309
0.00172874
0.00178299
0.00183569
0.00188666
0.00193576
0.00198284
0.0020278
0.00207053
0.00211093
0.00214896
0.00218456
0.00221771
0.00224842
0.00227608
0.000553085
0.000600535
0.000649128
0.00069859
0.000748715
0.000799349
0.000850396
0.000901812
0.000953597
0.00100578
0.00105841
0.00111154
0.00116525
0.00121956
0.00127454
0.00133019
0.00138652
0.00144349
0.00150104
0.00155906
0.00161684
0.00167359
0.00172915
0.00178331
0.00183591
0.00188679
0.0019358
0.0019828
0.00202767
0.00207031
0.00211064
0.00214859
0.00218412
0.0022172
0.00224785
0.00227544
0.000553085
0.000600533
0.000649162
0.000698686
0.000748899
0.000799649
0.000850835
0.000902409
0.000954363
0.00100672
0.00105952
0.00111282
0.00116667
0.00122112
0.00127618
0.00133189
0.00138824
0.00144518
0.00150265
0.00156053
0.00161813
0.0016747
0.00173006
0.00178403
0.00183644
0.00188712
0.00193594
0.00198275
0.00202743
0.00206989
0.00211005
0.00214783
0.0021832
0.00221612
0.00224663
0.0022741
0.000553084
0.000600531
0.000649212
0.000698823
0.000749162
0.000800076
0.000851462
0.000903263
0.000955465
0.00100808
0.00106114
0.00111469
0.00116876
0.00122341
0.00127864
0.00133447
0.00139088
0.00144783
0.00150526
0.00156304
0.00162035
0.00167664
0.00173171
0.00178538
0.00183749
0.00188788
0.0019364
0.00198292
0.00202732
0.00206951
0.00210939
0.00214692
0.00218204
0.00221474
0.00224503
0.0022723
0.000553083
0.000600528
0.000649272
0.000698989
0.000749483
0.000800599
0.00085223
0.000904312
0.000956818
0.00100975
0.00106313
0.00111698
0.00117134
0.00122623
0.00128167
0.00133764
0.00139413
0.0014511
0.00150846
0.00156609
0.00162305
0.00167897
0.00173367
0.00178697
0.0018387
0.00188871
0.00193685
0.001983
0.00202704
0.00206887
0.00210842
0.00214562
0.00218044
0.00221284
0.00224286
0.00226988
0.000553082
0.000600525
0.000649339
0.000699174
0.00074984
0.000801183
0.000853089
0.000905486
0.000958336
0.00101163
0.00106537
0.00111957
0.00117426
0.00122943
0.0012851
0.00134125
0.00139785
0.00145484
0.00151214
0.00156956
0.0016261
0.00168159
0.00173584
0.00178869
0.00183998
0.00188954
0.00193724
0.00198296
0.00202658
0.00206801
0.00210717
0.002144
0.00217847
0.00221054
0.00224025
0.002267
0.000553081
0.000600521
0.000649408
0.000699367
0.000750213
0.000801791
0.000853986
0.000906715
0.000959928
0.0010136
0.00106772
0.0011223
0.00117732
0.0012328
0.00128871
0.00134504
0.00140175
0.00145876
0.00151599
0.00157297
0.00162907
0.0016841
0.00173788
0.00179025
0.00184106
0.00189014
0.00193738
0.00198263
0.00202581
0.0020668
0.00210554
0.00214198
0.00217606
0.00220779
0.00223717
0.00226363
0.00055308
0.000600516
0.000649415
0.000699497
0.000750522
0.000802338
0.000854822
0.000907886
0.000961466
0.00101552
0.00107003
0.00112498
0.00118035
0.00123614
0.0012923
0.00134882
0.00140563
0.00146267
0.00151982
0.00157635
0.00163197
0.00168651
0.0017398
0.00179167
0.00184197
0.00189056
0.0019373
0.00198207
0.00202478
0.00206532
0.00210363
0.00213965
0.00217336
0.00220472
0.00223377
0.00225993
0.000553079
0.000600511
0.000649403
0.000699601
0.000750798
0.000802841
0.000855604
0.000908989
0.000962924
0.00101735
0.00107224
0.00112755
0.00118326
0.00123934
0.00129574
0.00135243
0.00140933
0.00146637
0.0015232
0.00157927
0.00163441
0.00168846
0.00174125
0.00179262
0.00184242
0.00189051
0.00193676
0.00198106
0.0020233
0.0020634
0.00210129
0.00213692
0.00217025
0.00220127
0.00223001
0.00225589
0.000553078
0.000600507
0.000649391
0.000699623
0.000750978
0.000803233
0.000856257
0.000909946
0.000964216
0.001019
0.00107424
0.0011299
0.00118593
0.00124229
0.00129893
0.00135579
0.00141279
0.0014698
0.00152619
0.00158182
0.0016365
0.00169008
0.00174238
0.00179327
0.00184258
0.00189019
0.00193598
0.00197982
0.00202162
0.0020613
0.0020988
0.00213405
0.00216703
0.00219773
0.00222618
0.0022518
0.000553077
0.000600503
0.00064938
0.0006996
0.000751062
0.000803508
0.000856768
0.000910731
0.000965303
0.00102041
0.00107597
0.00113194
0.00118826
0.00124487
0.0013017
0.0013587
0.00141575
0.00147239
0.00152841
0.00158362
0.00163788
0.00169102
0.00174288
0.00179332
0.00184219
0.00188937
0.00193472
0.00197815
0.00201955
0.00205885
0.00209599
0.00213091
0.00216359
0.00219401
0.0022222
0.00224762
0.000553077
0.000600501
0.000649373
0.000699582
0.00075103
0.000803609
0.000857082
0.000911296
0.000966146
0.00102155
0.00107742
0.00113369
0.00119028
0.00124715
0.00130419
0.00136132
0.00141811
0.00147442
0.00153008
0.00158493
0.00163881
0.00169156
0.00174303
0.00179308
0.00184156
0.00188835
0.00193334
0.0019764
0.00201747
0.00205644
0.00209328
0.00212792
0.00216034
0.00219053
0.00221851
0.00224374
0.000553077
0.000600501
0.00064937
0.000699573
0.000751006
0.000803564
0.000857132
0.000911551
0.000966628
0.00102227
0.00107838
0.00113487
0.00119168
0.00124871
0.0013058
0.0013627
0.00141924
0.00147528
0.00153065
0.0015852
0.00163876
0.0016912
0.00174234
0.00179207
0.00184023
0.00188672
0.0019314
0.00197418
0.00201498
0.0020537
0.0020903
0.00212473
0.00215697
0.00218699
0.00221484
0.00223998
0.000553078
0.000600506
0.000649381
0.000699588
0.000751023
0.000803578
0.000857137
0.00091158
0.000966782
0.00102262
0.00107895
0.00113564
0.00119257
0.00124957
0.00130652
0.00136325
0.00141961
0.00147545
0.00153061
0.00158494
0.00163828
0.00169049
0.0017414
0.0017909
0.00183884
0.00188511
0.00192958
0.00197217
0.00201278
0.00205134
0.00208778
0.00212208
0.00215419
0.00218412
0.00221188
0.00223693
0.000553081
0.000600513
0.000649394
0.000699605
0.000751041
0.000803591
0.00085714
0.000911565
0.000966743
0.00102255
0.00107884
0.00113549
0.00119236
0.00124929
0.00130616
0.0013628
0.00141906
0.00147478
0.00152982
0.00158402
0.00163723
0.0016893
0.00174008
0.00178944
0.00183725
0.00188339
0.00192774
0.0019702
0.00201069
0.00204914
0.00208548
0.00211968
0.0021517
0.00218153
0.00220921
0.0022342
0.000553101
0.000600567
0.000649496
0.000699762
0.000751255
0.000803863
0.000857468
0.000911948
0.000967174
0.00102302
0.00107935
0.00113602
0.0011929
0.00124985
0.0013067
0.00136332
0.00141955
0.00147524
0.00153022
0.00158435
0.00163748
0.00168944
0.0017401
0.00178932
0.00183696
0.0018829
0.00192703
0.00196924
0.00200944
0.00204756
0.00208353
0.00211731
0.00214887
0.00217819
0.00220531
0.00222965
0.00055313
0.000600653
0.000649677
0.000700073
0.00075173
0.000804537
0.000858375
0.000913115
0.000968625
0.00102477
0.00108141
0.0011384
0.0011956
0.00125285
0.00130999
0.00136687
0.00142333
0.0014792
0.00153431
0.0015885
0.0016416
0.00169345
0.0017439
0.00179279
0.00183997
0.0018853
0.00192867
0.00196995
0.00200905
0.00204589
0.00208039
0.00211251
0.00214223
0.00216953
0.00219445
0.00221644
0.00055359
0.000602151
0.000652705
0.000705084
0.000759148
0.000814742
0.000871699
0.00092984
0.00098898
0.00104893
0.00110948
0.00117044
0.0012316
0.00129274
0.00135365
0.00141411
0.00147391
0.00153282
0.00159063
0.00164714
0.00170212
0.00175539
0.00180675
0.00185604
0.00190308
0.00194772
0.00198985
0.00202934
0.00206611
0.00210009
0.00213122
0.0021595
0.00218491
0.00220749
0.00222734
0.00224383
0.000553129
0.000600652
0.000649676
0.000700069
0.000751724
0.000804529
0.000858361
0.000913094
0.000968595
0.00102473
0.00108136
0.00113833
0.00119551
0.00125274
0.00130986
0.00136671
0.00142313
0.00147896
0.00153403
0.00158817
0.00164121
0.00169299
0.00174336
0.00179216
0.00183923
0.00188446
0.00192771
0.00196886
0.00200783
0.00204452
0.00207887
0.00211084
0.0021404
0.00216754
0.00219231
0.00221414
0.000845876
0.000725666
0.000630368
0.000554013
0.000492309
0.000442095
0.00040102
0.000367316
0.000339638
0.000316954
0.000298464
0.000283546
0.000271709
0.000262562
0.00025579
0.000251128
0.000248356
0.000247288
0.000247748
0.000249581
0.000252651
0.000256828
0.000261989
0.000268018
0.000274802
0.000282232
0.000290203
0.000298615
0.00030737
0.000316374
0.000325534
0.000334759
0.000343951
0.000352995
0.000361715
0.000369696
0.000847278
0.000726918
0.000630531
0.000552454
0.000488579
0.000435869
0.00039205
0.000355397
0.000324588
0.0002986
0.000276635
0.000258065
0.000242393
0.000229221
0.000218228
0.000209158
0.000201797
0.000195965
0.0001915
0.000188258
0.000186115
0.000184963
0.0001847
0.000185232
0.000186471
0.000188332
0.000190734
0.000193601
0.000196858
0.000200435
0.000204261
0.000208268
0.000212383
0.000216522
0.000220563
0.000224213
0.000847283
0.000726879
0.000630436
0.000552294
0.000488343
0.000435544
0.000391618
0.000354841
0.000323889
0.000297743
0.000275604
0.000256847
0.000240978
0.000227599
0.000216393
0.000207098
0.000199498
0.000193412
0.000188685
0.000185168
0.000182733
0.000181271
0.000180678
0.000180859
0.000181726
0.000183192
0.000185178
0.000187605
0.000190401
0.000193495
0.000196818
0.000200304
0.000203881
0.000207471
0.000210957
0.000214062
0.00084729
0.000726881
0.000630423
0.000552256
0.000488269
0.000435421
0.000391436
0.00035459
0.000323564
0.000297341
0.000275128
0.000256302
0.000240372
0.000226945
0.000215704
0.000206391
0.000198793
0.000192731
0.000188048
0.000184602
0.000182257
0.000180901
0.00018043
0.000180745
0.000181755
0.000183371
0.00018551
0.000188092
0.000191041
0.000194283
0.00019775
0.00020137
0.000205072
0.000208773
0.000212358
0.000215548
0.000847299
0.00072689
0.000630416
0.000552215
0.000488174
0.000435254
0.000391177
0.000354223
0.000323128
0.000296864
0.000274611
0.000255721
0.00023967
0.000226073
0.000214677
0.000205227
0.000197511
0.000191352
0.000186595
0.000183107
0.000180743
0.000179388
0.000178937
0.000179291
0.000180355
0.000182039
0.000184259
0.00018693
0.000189975
0.000193317
0.000196885
0.000200605
0.000204405
0.000208199
0.000211872
0.000215144
0.000847311
0.000726906
0.00063042
0.000552187
0.000488092
0.000435095
0.000390965
0.000354028
0.000322953
0.000296705
0.000274464
0.000255581
0.000239533
0.0002259
0.000214338
0.000204724
0.000196883
0.000190638
0.000185835
0.000182338
0.000180012
0.000178728
0.000178378
0.000178861
0.000180077
0.000181934
0.00018434
0.00018721
0.000190461
0.000194014
0.000197792
0.00020172
0.000205721
0.00020971
0.000213566
0.000217009
0.000847324
0.000726926
0.000630429
0.00055216
0.000488002
0.000434976
0.000390861
0.000353937
0.000322872
0.000296631
0.000274393
0.000255509
0.000239457
0.000225816
0.000214242
0.000204457
0.000196379
0.000189943
0.000184995
0.000181398
0.000179024
0.000177729
0.000177403
0.000177938
0.000179235
0.000181195
0.000183723
0.00018673
0.000190129
0.000193835
0.000197771
0.000201856
0.000206012
0.000210149
0.000214147
0.000217723
0.000847339
0.000726949
0.00063044
0.000552133
0.00048795
0.000434934
0.000390829
0.000353914
0.000322856
0.000296617
0.000274379
0.00025549
0.000239429
0.000225776
0.000214189
0.000204387
0.000196141
0.0001895
0.000184403
0.000180713
0.000178303
0.000177024
0.000176757
0.00017739
0.000178818
0.000180938
0.000183649
0.000186858
0.000190471
0.0001944
0.000198562
0.000202874
0.000207253
0.000211605
0.000215808
0.000219578
0.000847356
0.000726975
0.000630454
0.000552113
0.000487936
0.000434928
0.000390833
0.000353925
0.000322872
0.000296635
0.000274393
0.000255496
0.000239424
0.000225756
0.000214151
0.00020433
0.000196062
0.000189161
0.000183867
0.000180038
0.000177546
0.000176247
0.000176004
0.000176703
0.000178231
0.000180482
0.000183349
0.000186732
0.000190533
0.00019466
0.000199024
0.000203538
0.000208115
0.00021266
0.000217046
0.000220988
0.000847373
0.000727003
0.00063047
0.000552129
0.000487958
0.000434959
0.000390872
0.000353971
0.000322921
0.000296683
0.000274435
0.000255529
0.000239442
0.000225757
0.000214132
0.000204289
0.000195999
0.000189074
0.000183549
0.000179558
0.000176968
0.00017564
0.000175419
0.000176186
0.000177824
0.000180219
0.000183259
0.000186837
0.000190851
0.000195202
0.000199795
0.000204541
0.000209347
0.000214115
0.000218714
0.000222859
0.000847392
0.000727032
0.000630486
0.000552147
0.000487983
0.000434993
0.000390916
0.000354022
0.000322976
0.000296737
0.000274484
0.000255566
0.000239465
0.000225761
0.000214115
0.000204249
0.000195936
0.000188986
0.000183245
0.00017908
0.00017638
0.000175011
0.000174804
0.000175631
0.00017737
0.000179902
0.000183107
0.000186874
0.000191093
0.00019566
0.000200475
0.000205443
0.000210468
0.000215447
0.00022025
0.000224586
0.00084741
0.000727061
0.000630514
0.00055218
0.000488025
0.000435046
0.000390979
0.000354092
0.000323049
0.000296808
0.000274548
0.00025562
0.000239503
0.000225779
0.00021411
0.00020422
0.000195882
0.000188908
0.000183143
0.000178776
0.000175942
0.000174507
0.00017429
0.000175157
0.000176978
0.000179628
0.000182982
0.000186922
0.000191332
0.000196103
0.000201131
0.000206313
0.000211553
0.000216742
0.000221747
0.000226276
0.000847427
0.000727088
0.000630541
0.000552212
0.000488066
0.000435098
0.00039104
0.00035416
0.00032312
0.000296878
0.000274612
0.000255672
0.000239539
0.000225797
0.000214106
0.000204193
0.000195831
0.000188833
0.000183045
0.000178489
0.00017553
0.00017403
0.00017381
0.00017472
0.000176625
0.000179395
0.000182899
0.000187011
0.000191611
0.000196582
0.000201816
0.000207207
0.000212652
0.00021804
0.000223235
0.000227944
0.000847442
0.000727113
0.000630565
0.000552241
0.000488103
0.000435145
0.000391096
0.000354222
0.000323185
0.000296941
0.00027467
0.00025572
0.000239573
0.000225813
0.000214102
0.000204166
0.000195781
0.000188761
0.00018295
0.000178222
0.000175118
0.000173525
0.000173269
0.000174185
0.000176135
0.00017898
0.000182587
0.000186824
0.000191566
0.000196693
0.00020209
0.000207649
0.000213263
0.000218819
0.000224177
0.000229044
0.000847455
0.000727134
0.000630584
0.000552265
0.000488134
0.000435184
0.000391142
0.000354274
0.00032324
0.000296995
0.000274719
0.000255761
0.000239602
0.000225828
0.0002141
0.000204147
0.000195743
0.000188704
0.000182877
0.000178132
0.000174919
0.000173265
0.000172994
0.000173932
0.000175935
0.000178863
0.000182575
0.000186937
0.000191816
0.000197089
0.000202638
0.00020835
0.000214113
0.000219814
0.000225311
0.000230308
0.000847465
0.000727149
0.000630599
0.000552282
0.000488157
0.000435212
0.000391176
0.000354312
0.00032328
0.000297034
0.000274754
0.00025579
0.000239623
0.000225837
0.000214096
0.000204128
0.000195708
0.000188653
0.000182809
0.000178048
0.000174694
0.00017293
0.000172588
0.000173482
0.000175466
0.000178395
0.000182127
0.000186525
0.000191455
0.00019679
0.000202409
0.000208198
0.000214043
0.000219829
0.00022541
0.000230492
0.00084747
0.000727157
0.000630607
0.000552291
0.000488169
0.000435228
0.000391195
0.000354333
0.000323302
0.000297056
0.000274774
0.000255807
0.000239635
0.000225844
0.000214097
0.000204122
0.000195696
0.000188635
0.000182785
0.000178019
0.000174635
0.000172861
0.000172524
0.000173438
0.000175454
0.000178426
0.000182209
0.000186665
0.000191656
0.000197055
0.00020274
0.000208592
0.000214499
0.000220343
0.000225978
0.000231109
0.00084747
0.000727158
0.000630607
0.000552292
0.000488169
0.000435228
0.000391195
0.000354334
0.000323302
0.000297056
0.000274774
0.000255806
0.000239633
0.00022584
0.000214091
0.000204114
0.000195684
0.000188619
0.000182764
0.000177992
0.000174533
0.000172684
0.00017228
0.000173128
0.00017508
0.000177991
0.000181717
0.000186119
0.000191063
0.000196419
0.000202065
0.000207886
0.000213766
0.000219587
0.000225205
0.000230322
0.000847466
0.000727151
0.0006306
0.000552283
0.000488158
0.000435214
0.000391178
0.000354314
0.000323281
0.000297035
0.000274753
0.000255787
0.000239617
0.000225828
0.000214084
0.000204111
0.000195686
0.000188624
0.000182773
0.000178004
0.000174555
0.000172704
0.000172289
0.000173116
0.000175042
0.00017792
0.000181609
0.000185971
0.000190872
0.000196184
0.000201786
0.000207561
0.000213396
0.000219174
0.000224749
0.000229823
0.000847457
0.000727137
0.000630586
0.000552266
0.000488136
0.000435186
0.000391144
0.000354276
0.000323241
0.000296994
0.000274715
0.000255754
0.00023959
0.000225809
0.000214073
0.00020411
0.000195694
0.000188641
0.000182796
0.000178032
0.000174586
0.000172707
0.000172243
0.000173
0.000174836
0.00017761
0.000181184
0.000185422
0.000190195
0.000195377
0.000200849
0.000206497
0.000212211
0.000217872
0.000223338
0.000228309
0.000847445
0.000727117
0.000630567
0.000552243
0.000488105
0.000435147
0.000391098
0.000354224
0.000323186
0.000296939
0.000274664
0.00025571
0.000239556
0.000225788
0.000214066
0.000204118
0.000195718
0.000188681
0.000182851
0.000178099
0.000174736
0.0001729
0.000172439
0.000173169
0.000174952
0.000177649
0.000181128
0.000185258
0.00018991
0.000194965
0.000200305
0.000205821
0.000211404
0.000216937
0.000222279
0.000227131
0.00084743
0.000727092
0.000630543
0.000552214
0.000488068
0.0004351
0.000391042
0.000354161
0.00032312
0.000296874
0.000274604
0.000255658
0.000239517
0.000225764
0.000214061
0.000204132
0.000195751
0.000188732
0.000182919
0.000178183
0.000174912
0.000173114
0.000172642
0.000173321
0.000175017
0.000177598
0.000180936
0.000184905
0.000189384
0.000194255
0.000199408
0.000204736
0.000210133
0.000215487
0.000220657
0.000225346
0.000847412
0.000727065
0.000630517
0.000552182
0.000488027
0.000435048
0.00039098
0.000354092
0.000323047
0.000296803
0.000274538
0.000255603
0.000239477
0.000225742
0.000214059
0.000204152
0.000195795
0.000188798
0.000183007
0.000178324
0.00017519
0.000173471
0.000173018
0.000173671
0.0001753
0.000177782
0.000180992
0.000184811
0.000189123
0.000193816
0.000198785
0.000203926
0.000209138
0.00021431
0.000219306
0.000223829
0.000847394
0.000727036
0.000630489
0.000552149
0.000487984
0.000434995
0.000390917
0.000354022
0.000322973
0.00029673
0.000274472
0.000255548
0.000239437
0.000225721
0.00021406
0.000204177
0.000195844
0.000188871
0.000183102
0.000178608
0.000175596
0.000173936
0.000173481
0.000174083
0.000175619
0.00017797
0.00018102
0.000184655
0.000188765
0.000193245
0.000197992
0.00020291
0.000207901
0.000212857
0.000217646
0.000221972
0.000847376
0.000727007
0.00063047
0.000552128
0.000487956
0.000434957
0.000390869
0.000353967
0.000322915
0.000296673
0.00027442
0.000255506
0.000239411
0.000225714
0.000214075
0.000204215
0.000195906
0.000188958
0.000183212
0.000178926
0.000176054
0.000174471
0.00017403
0.000174597
0.000176057
0.000178295
0.000181202
0.00018467
0.000188596
0.000192879
0.000197423
0.000202135
0.000206921
0.00021168
0.000216278
0.000220424
0.000847358
0.000726979
0.000630455
0.000552112
0.000487934
0.000434926
0.00039083
0.000353921
0.000322865
0.000296624
0.000274377
0.000255474
0.000239393
0.000225714
0.000214096
0.000204259
0.000195973
0.000189048
0.000183468
0.000179366
0.000176611
0.000175084
0.000174636
0.000175147
0.000176508
0.00017861
0.000181351
0.000184628
0.000188345
0.000192406
0.000196721
0.000201201
0.000205758
0.000210292
0.000214675
0.000218617
0.000847342
0.000726952
0.000630441
0.000552125
0.000487941
0.000434925
0.00039082
0.000353903
0.000322844
0.000296602
0.00027436
0.000255465
0.000239397
0.000225734
0.000214135
0.000204318
0.000196054
0.000189171
0.000183839
0.000179919
0.000177286
0.00017582
0.000175378
0.000175851
0.000177136
0.00017913
0.000181735
0.000184855
0.000188398
0.000192275
0.000196399
0.000200688
0.000205055
0.000209405
0.000213611
0.000217386
0.000847326
0.000726929
0.000630429
0.000552153
0.000487981
0.000434956
0.000390842
0.000353917
0.000322852
0.000296609
0.000274368
0.000255479
0.000239421
0.000225771
0.000214187
0.000204389
0.000196144
0.000189502
0.000184351
0.000180554
0.00017799
0.000176532
0.000176053
0.000176449
0.000177619
0.000179469
0.000181903
0.000184832
0.000188168
0.000191828
0.000195731
0.000199796
0.000203943
0.000208078
0.00021208
0.000215662
0.000847313
0.000726909
0.000630421
0.000552181
0.000488074
0.000435059
0.000390932
0.000353996
0.000322922
0.000296673
0.000274431
0.000255545
0.000239492
0.000225852
0.000214281
0.000204505
0.000196501
0.00019009
0.00018512
0.000181458
0.000178983
0.000177562
0.000177082
0.000177445
0.000178553
0.000180314
0.000182638
0.000185441
0.000188638
0.000192151
0.000195901
0.000199813
0.000203808
0.000207797
0.000211659
0.000215109
0.000847301
0.000726892
0.000630417
0.00055221
0.000488159
0.000435223
0.000391125
0.000354168
0.000323076
0.000296814
0.000274562
0.000255671
0.000239617
0.000225979
0.00021446
0.000204882
0.000197034
0.000190739
0.000185843
0.000182214
0.000179729
0.000178256
0.000177694
0.000177943
0.000178913
0.000180515
0.000182662
0.000185275
0.000188273
0.00019158
0.000195124
0.00019883
0.000202625
0.000206421
0.000210099
0.000213379
0.000847292
0.000726884
0.000630424
0.000552252
0.000488256
0.000435395
0.000391392
0.000354522
0.000323466
0.000297207
0.00027495
0.000256073
0.000240083
0.000226588
0.00021527
0.000205871
0.000198179
0.000192014
0.000187225
0.000183677
0.000181235
0.000179784
0.000179221
0.00017945
0.00018038
0.000181925
0.000184004
0.000186535
0.000189444
0.000192658
0.000196104
0.000199714
0.000203412
0.000207117
0.000210709
0.000213908
0.000847285
0.000726881
0.000630437
0.000552291
0.000488333
0.000435522
0.000391581
0.000354782
0.000323804
0.000297624
0.000275445
0.000256642
0.000240717
0.000227276
0.000215998
0.000206623
0.000198936
0.000192757
0.000187931
0.000184325
0.000181802
0.000180252
0.000179574
0.000179676
0.000180469
0.00018187
0.0001838
0.00018618
0.00018894
0.000192006
0.000195312
0.000198788
0.000202364
0.000205957
0.000209452
0.000212567
0.000847279
0.00072692
0.000630532
0.000552452
0.000488571
0.000435851
0.000392018
0.000355347
0.000324514
0.000298497
0.000276496
0.000257883
0.000242162
0.000228932
0.000217876
0.000208737
0.0002013
0.000195386
0.000190842
0.000187522
0.000185303
0.000184074
0.000183739
0.000184204
0.000185381
0.000187189
0.000189548
0.00019238
0.000195613
0.000199175
0.000202995
0.000207005
0.000211129
0.000215283
0.000219344
0.000223015
0.000845877
0.000725668
0.000630369
0.000554014
0.000492307
0.00044209
0.00040101
0.0003673
0.000339613
0.000316916
0.000298411
0.000283474
0.000271614
0.00026244
0.000255633
0.000250931
0.000248114
0.000246998
0.000247419
0.000249214
0.000252246
0.000256388
0.000261519
0.000267524
0.000274292
0.000281715
0.000289688
0.000298111
0.000306886
0.000315917
0.000325113
0.00033438