/*--------------------------------*- C++ -*----------------------------------*\
  =========                 |
  \\      /  F ield         | OpenFOAM: The Open Source CFD Toolbox
   \\    /   O peration     | Website:  https://openfoam.org
    \\  /    A nd           | Version:  10
     \\/     M anipulation  |
\*---------------------------------------------------------------------------*/
FoamFile
{
    format      ascii;
    class       volScalarField;
    location    "68";
    object      k;
}
// * * * * * * * * * * * * * * * * * * * * * * * * * * * * * * * * * * * * * //

dimensions      [0 2 -2 0 0 0 0];

internalField   nonuniform List<scalar> 
127913
(
0.00106044
0.00112158
0.00118351
0.00124601
0.00130891
0.00137206
0.00143528
0.0014984
0.00156128
0.00162374
0.00168563
0.00174681
0.00180713
0.00186643
0.00192458
0.00198143
0.00203686
0.00209074
0.00214292
0.00219331
0.00224178
0.00228822
0.00233255
0.00237468
0.00241452
0.00245203
0.00248714
0.00251982
0.00255004
0.0025778
0.00260309
0.00262595
0.0026464
0.00266451
0.00268036
0.00269349
0.00105985
0.00111972
0.00117985
0.0012401
0.00130037
0.00136058
0.00142061
0.00148038
0.00153978
0.00159871
0.00165708
0.00171479
0.00177174
0.00182783
0.00188297
0.00193706
0.00199
0.0020417
0.00209205
0.00214096
0.00218835
0.00223412
0.00227819
0.00232049
0.00236093
0.00239945
0.00243601
0.00247054
0.00250303
0.00253343
0.00256173
0.00258794
0.00261207
0.00263413
0.00265419
0.00267183
0.00105982
0.00111961
0.00117963
0.00123973
0.00129982
0.00135982
0.00141961
0.00147912
0.00153824
0.00159689
0.00165498
0.0017124
0.00176908
0.00182492
0.00187983
0.00193372
0.00198649
0.00203807
0.00208835
0.00213726
0.0021847
0.00223061
0.00227491
0.00231752
0.00235839
0.00239745
0.00243467
0.00246999
0.0025034
0.00253486
0.00256437
0.00259192
0.00261753
0.00264121
0.00266301
0.00268252
0.00105979
0.00111955
0.0011795
0.00123955
0.00129958
0.00135951
0.00141925
0.00147871
0.00153779
0.0015964
0.00165446
0.00171187
0.00176854
0.00182438
0.00187931
0.00193322
0.00198603
0.00203765
0.00208799
0.00213697
0.0021845
0.0022305
0.0022749
0.00231764
0.00235865
0.00239788
0.00243528
0.00247081
0.00250445
0.00253618
0.00256598
0.00259386
0.00261983
0.00264392
0.00266616
0.00268617
0.00105979
0.00111954
0.00117949
0.00123952
0.00129956
0.0013595
0.00141925
0.00147872
0.00153783
0.00159648
0.00165458
0.00171204
0.00176877
0.00182468
0.00187969
0.00193369
0.0019866
0.00203832
0.00208877
0.00213785
0.00218549
0.0022316
0.00227611
0.00231895
0.00236007
0.00239939
0.00243689
0.00247251
0.00250624
0.00253804
0.00256792
0.00259588
0.00262191
0.00264606
0.00266836
0.00268841
0.00105979
0.00111953
0.00117948
0.00123951
0.00129954
0.00135948
0.00141924
0.00147874
0.00153778
0.00159631
0.00165428
0.00171166
0.0017684
0.00182443
0.00187956
0.00193371
0.00198677
0.00203865
0.00208926
0.00213852
0.00218633
0.00223262
0.00227731
0.00232032
0.00236159
0.00240107
0.00243871
0.00247447
0.00250832
0.00254024
0.00257022
0.00259826
0.00262437
0.00264858
0.00267093
0.00269103
0.00105979
0.00111953
0.00117948
0.00123952
0.00129957
0.00135953
0.00141924
0.00147854
0.00153736
0.00159566
0.00165341
0.00171059
0.00176717
0.00182313
0.00187843
0.00193281
0.00198611
0.00203825
0.00208913
0.00213865
0.00218674
0.00223329
0.00227824
0.00232152
0.00236304
0.00240277
0.00244064
0.00247661
0.00251066
0.00254276
0.00257291
0.0026011
0.00262734
0.00265165
0.00267409
0.00269425
0.00105979
0.00111954
0.00117949
0.00123954
0.0012996
0.00135946
0.00141895
0.00147799
0.00153654
0.00159456
0.00165203
0.00170895
0.0017653
0.00182106
0.00187622
0.00193073
0.00198435
0.0020368
0.00208801
0.00213786
0.00218628
0.00223318
0.00227846
0.00232206
0.00236391
0.00240394
0.0024421
0.00247836
0.00251267
0.00254502
0.0025754
0.00260379
0.00263022
0.00265471
0.0026773
0.0026976
0.00105979
0.00111954
0.0011795
0.00123957
0.00129955
0.0013592
0.00141844
0.0014772
0.00153546
0.00159318
0.00165036
0.00170701
0.00176312
0.00181869
0.00187372
0.00192817
0.001982
0.00203482
0.00208641
0.00213665
0.00218545
0.00223273
0.0022784
0.00232238
0.00236459
0.00240498
0.00244349
0.00248008
0.00251471
0.00254735
0.00257799
0.00260664
0.0026333
0.00265799
0.00268077
0.00270121
0.00105979
0.00111955
0.00117952
0.00123957
0.00129937
0.00135879
0.00141776
0.00147622
0.00153415
0.00159153
0.00164839
0.00170474
0.00176058
0.00181593
0.00187079
0.00192514
0.00197896
0.00203217
0.00208416
0.00213482
0.00218404
0.00223174
0.00227782
0.00232221
0.00236483
0.00240561
0.0024445
0.00248145
0.00251643
0.00254939
0.00258035
0.00260928
0.0026362
0.00266113
0.00268413
0.00270477
0.00105979
0.00111955
0.00117953
0.00123945
0.00129906
0.00135824
0.00141692
0.00147505
0.00153263
0.00158967
0.00164618
0.0017022
0.00175776
0.00181288
0.00186757
0.00192183
0.00197562
0.0020289
0.00208133
0.00213243
0.00218211
0.00223027
0.0022768
0.00232164
0.00236469
0.0024059
0.0024452
0.00248255
0.0025179
0.00255123
0.00258252
0.00261176
0.00263898
0.00266418
0.00268742
0.00270826
0.00105979
0.00111956
0.00117954
0.00123932
0.00129872
0.00135765
0.00141602
0.00147381
0.00153103
0.00158769
0.00164384
0.00169953
0.00175479
0.00180966
0.00186416
0.00191829
0.00197204
0.00202537
0.0020782
0.00212975
0.00217988
0.00222848
0.00227547
0.00232075
0.00236424
0.00240588
0.00244559
0.00248333
0.00251906
0.00255276
0.00258439
0.00261396
0.00264147
0.00266696
0.00269045
0.00271152
0.00105979
0.00111956
0.00117946
0.00123909
0.00129829
0.00135696
0.00141502
0.00147247
0.00152933
0.00158562
0.00164141
0.00169676
0.00175172
0.00180633
0.00186064
0.00191464
0.00196834
0.00202169
0.00207464
0.00212663
0.00217721
0.00222627
0.0022737
0.00231943
0.00236336
0.00240542
0.00244556
0.0024837
0.00251982
0.00255388
0.00258587
0.00261577
0.0026436
0.00266937
0.00269313
0.00271444
0.00105979
0.00111957
0.00117938
0.00123887
0.00129787
0.00135629
0.00141406
0.00147118
0.00152768
0.00158361
0.00163905
0.00169407
0.00174873
0.0018031
0.0018572
0.00191107
0.00196471
0.00201807
0.00207111
0.00212352
0.00217451
0.00222398
0.00227183
0.00231796
0.0023623
0.00240476
0.00244528
0.0024838
0.00252028
0.00255469
0.002587
0.00261722
0.00264534
0.00267138
0.0026954
0.00271693
0.0010598
0.00111957
0.0011793
0.00123866
0.00129749
0.00135568
0.00141318
0.00146999
0.00152617
0.00158178
0.0016369
0.00169161
0.001746
0.00180012
0.00185404
0.00190777
0.00196132
0.00201467
0.00206776
0.00212049
0.00217185
0.00222169
0.00226991
0.00231641
0.00236111
0.00240392
0.00244479
0.00248364
0.00252045
0.00255517
0.00258778
0.00261827
0.00264666
0.00267295
0.0026972
0.00271894
0.0010598
0.00111957
0.00117924
0.00123849
0.00129717
0.00135516
0.00141244
0.001469
0.00152491
0.00158025
0.0016351
0.00168956
0.00174372
0.00179764
0.0018514
0.00190501
0.0019585
0.00201184
0.00206497
0.00211782
0.00216948
0.00221963
0.00226815
0.00231496
0.00235996
0.00240307
0.00244422
0.00248336
0.00252044
0.00255542
0.00258828
0.00261901
0.00264762
0.00267413
0.00269858
0.0027205
0.0010598
0.00111958
0.00117919
0.00123837
0.00129693
0.00135479
0.0014119
0.00146828
0.00152399
0.00157913
0.00163378
0.00168805
0.00174203
0.00179579
0.00184941
0.00190291
0.00195632
0.0020096
0.00206272
0.00211559
0.00216748
0.00221785
0.0022666
0.00231364
0.00235886
0.00240219
0.00244356
0.00248291
0.00252019
0.00255536
0.00258842
0.00261933
0.00264811
0.00267478
0.00269938
0.00272144
0.0010598
0.00111958
0.00117917
0.0012383
0.0012968
0.00135458
0.0014116
0.00146788
0.00152349
0.00157852
0.00163306
0.00168723
0.00174112
0.00179482
0.00184837
0.00190183
0.00195521
0.0020085
0.00206164
0.00211455
0.00216655
0.00221704
0.0022659
0.00231305
0.00235838
0.00240183
0.00244331
0.00248276
0.00252015
0.00255543
0.00258858
0.00261959
0.00264846
0.00267522
0.0026999
0.00272203
0.0010598
0.00111958
0.00117916
0.00123829
0.00129679
0.00135456
0.00141157
0.00146784
0.00152343
0.00157845
0.00163298
0.00168713
0.001741
0.00179466
0.00184819
0.00190161
0.00195494
0.00200818
0.00206126
0.00211411
0.00216613
0.00221664
0.00226553
0.0023127
0.00235806
0.00240153
0.00244304
0.00248252
0.00251993
0.00255523
0.00258841
0.00261944
0.00264833
0.00267511
0.00269981
0.00272196
0.0010598
0.00111958
0.00117918
0.00123835
0.0012969
0.00135473
0.00141181
0.00146815
0.00152383
0.00157892
0.00163353
0.00168775
0.00174168
0.00179539
0.00184894
0.00190238
0.0019557
0.00200891
0.00206195
0.00211473
0.00216666
0.00221709
0.00226589
0.00231298
0.00235826
0.00240164
0.00244307
0.00248248
0.00251982
0.00255506
0.00258817
0.00261914
0.00264798
0.0026747
0.00269935
0.00272146
0.0010598
0.00111957
0.00117923
0.00123846
0.00129711
0.00135507
0.00141229
0.0014688
0.00152465
0.00157991
0.00163468
0.00168905
0.00174311
0.00179692
0.00185054
0.001904
0.00195732
0.00201047
0.00206342
0.00211606
0.00216782
0.00221806
0.00226669
0.0023136
0.00235871
0.00240193
0.00244319
0.00248244
0.00251963
0.00255472
0.00258769
0.00261853
0.00264724
0.00267384
0.00269838
0.00272039
0.0010598
0.00111957
0.00117929
0.00123862
0.00129741
0.00135555
0.00141298
0.00146973
0.00152582
0.00158133
0.00163634
0.00169094
0.00174519
0.00179916
0.00185291
0.00190645
0.0019598
0.00201294
0.00206581
0.00211833
0.00216981
0.00221978
0.00226813
0.00231477
0.00235961
0.00240257
0.00244358
0.00248259
0.00251954
0.00255441
0.00258716
0.0026178
0.00264632
0.00267274
0.00269711
0.00271897
0.00105979
0.00111957
0.00117936
0.00123882
0.00129778
0.00135614
0.00141383
0.00147086
0.00152726
0.00158308
0.00163839
0.00169326
0.00174776
0.00180193
0.00185583
0.00190948
0.00196286
0.00201596
0.00206874
0.00212109
0.00217222
0.00222185
0.00226985
0.00231615
0.00236065
0.00240328
0.00244397
0.00248267
0.00251932
0.0025539
0.00258638
0.00261676
0.00264503
0.00267123
0.00269539
0.00271706
0.00105979
0.00111956
0.00117944
0.00123904
0.0012982
0.0013568
0.00141478
0.00147214
0.00152887
0.00158504
0.00164069
0.00169587
0.00175065
0.00180507
0.00185915
0.00191291
0.00196635
0.00201943
0.00207211
0.00212424
0.00217496
0.00222417
0.00227177
0.00231766
0.00236177
0.00240401
0.00244433
0.00248266
0.00251896
0.00255321
0.00258538
0.00261546
0.00264346
0.00266939
0.00269332
0.00271477
0.00105979
0.00111956
0.00117952
0.00123927
0.00129863
0.00135749
0.00141578
0.00147347
0.00153057
0.0015871
0.0016431
0.00169862
0.0017537
0.00180836
0.00186263
0.00191652
0.00197
0.00202306
0.00207562
0.00212732
0.00217761
0.00222639
0.00227355
0.00231902
0.0023627
0.00240453
0.00244445
0.0024824
0.00251833
0.00255223
0.00258406
0.00261382
0.00264153
0.00266719
0.00269086
0.00271209
0.00105979
0.00111955
0.00117953
0.00123942
0.00129898
0.0013581
0.0014167
0.00147474
0.0015322
0.00158911
0.00164547
0.00170133
0.00175671
0.00181163
0.00186609
0.00192011
0.00197365
0.00202668
0.00207913
0.00213037
0.00218021
0.00222853
0.00227524
0.00232025
0.0023635
0.0024049
0.0024444
0.00248194
0.0025175
0.00255102
0.00258251
0.00261195
0.00263936
0.00266474
0.00268815
0.00270916
0.00105979
0.00111955
0.00117952
0.00123954
0.0012993
0.00135867
0.00141756
0.00147593
0.00153375
0.00159102
0.00164774
0.00170392
0.00175959
0.00181475
0.0018694
0.00192353
0.00197711
0.0020301
0.00208222
0.00213302
0.0021824
0.00223026
0.00227652
0.00232109
0.0023639
0.00240487
0.00244396
0.00248111
0.00251629
0.00254946
0.00258061
0.00260974
0.00263685
0.00266197
0.00268514
0.00270595
0.00105979
0.00111954
0.0011795
0.00123957
0.00129951
0.00135911
0.00141829
0.00147697
0.00153512
0.00159273
0.00164979
0.00170629
0.00176224
0.00181764
0.00187247
0.00192672
0.00198035
0.00203327
0.00208497
0.00213533
0.00218427
0.0022317
0.00227752
0.00232167
0.00236406
0.00240463
0.00244332
0.0024801
0.00251492
0.00254775
0.00257859
0.00260742
0.00263427
0.00265914
0.00268209
0.00270269
0.00105979
0.00111954
0.00117949
0.00123954
0.00129961
0.00135942
0.00141885
0.00147782
0.00153628
0.0015942
0.00165156
0.00170834
0.00176455
0.00182015
0.00187514
0.00192948
0.00198312
0.00203567
0.00208699
0.00213696
0.00218551
0.00223254
0.00227797
0.00232172
0.00236373
0.00240394
0.00244228
0.00247872
0.00251321
0.00254575
0.00257631
0.00260488
0.00263149
0.00265615
0.0026789
0.00269936
0.00105979
0.00111953
0.00117948
0.00123952
0.00129957
0.00135954
0.0014192
0.00147843
0.00153717
0.00159539
0.00165304
0.0017101
0.00176655
0.00182237
0.00187753
0.00193197
0.00198534
0.00203756
0.00208853
0.00213816
0.00218635
0.00223303
0.00227812
0.00232153
0.00236321
0.00240309
0.00244113
0.00247728
0.0025115
0.00254378
0.0025741
0.00260246
0.00262887
0.00265335
0.00267595
0.00269626
0.00105979
0.00111953
0.00117948
0.00123951
0.00129954
0.00135949
0.00141925
0.00147871
0.00153769
0.00159614
0.00165402
0.0017113
0.00176793
0.0018239
0.00187908
0.00193328
0.0019864
0.00203836
0.00208905
0.0021384
0.00218632
0.00223272
0.00227753
0.00232067
0.00236209
0.00240172
0.00243951
0.00247543
0.00250944
0.00254153
0.00257167
0.00259988
0.00262615
0.00265051
0.00267301
0.00269326
0.00105979
0.00111954
0.00117949
0.00123953
0.00129956
0.0013595
0.00141926
0.00147874
0.00153785
0.00159651
0.00165461
0.00171208
0.00176883
0.00182476
0.00187979
0.00193382
0.00198676
0.00203853
0.00208904
0.00213819
0.00218591
0.00223211
0.00227672
0.00231968
0.00236091
0.00240037
0.002438
0.00247376
0.00250763
0.00253959
0.00256962
0.00259772
0.00262391
0.0026482
0.00267064
0.00269083
0.00105979
0.00111955
0.00117951
0.00123955
0.00129958
0.00135952
0.00141926
0.00147872
0.00153781
0.00159643
0.0016545
0.00171193
0.00176862
0.00182449
0.00187944
0.00193339
0.00198625
0.00203792
0.00208832
0.00213737
0.00218498
0.00223107
0.00227558
0.00231843
0.00235956
0.00239891
0.00243645
0.00247212
0.00250591
0.00253779
0.00256774
0.00259577
0.00262189
0.00264611
0.0026685
0.00268864
0.00105982
0.00111962
0.00117963
0.00123973
0.00129983
0.00135982
0.00141963
0.00147914
0.00153827
0.00159693
0.00165502
0.00171246
0.00176916
0.00182503
0.00187997
0.00193389
0.00198671
0.00203834
0.00208869
0.00213767
0.00218519
0.0022312
0.00227559
0.00231832
0.00235931
0.0023985
0.00243585
0.00247132
0.00250487
0.00253648
0.00256614
0.00259384
0.00261959
0.00264342
0.00266536
0.002685
0.00105985
0.00111972
0.00117985
0.0012401
0.00130038
0.00136059
0.00142063
0.0014804
0.00153981
0.00159875
0.00165713
0.00171486
0.00177183
0.00182795
0.00188312
0.00193725
0.00199024
0.00204198
0.0020924
0.00214139
0.00218886
0.00223473
0.00227891
0.00232131
0.00236188
0.00240054
0.00243724
0.00247192
0.00250455
0.00253511
0.00256357
0.00258993
0.0026142
0.00263642
0.00265662
0.00267439
0.00106044
0.00112158
0.00118351
0.00124601
0.00130892
0.00137207
0.00143529
0.00149842
0.0015613
0.00162377
0.00168568
0.00174688
0.00180721
0.00186655
0.00192473
0.00198163
0.00203711
0.00209104
0.00214331
0.00219378
0.00224234
0.0022889
0.00233335
0.00237561
0.0024156
0.00245326
0.00248853
0.00252138
0.00255177
0.00257971
0.00260518
0.00262822
0.00264885
0.00266712
0.00268314
0.00269643
0.00105985
0.00111972
0.00117985
0.0012401
0.00130037
0.00136058
0.00142061
0.00148038
0.00153977
0.00159871
0.00165708
0.00171479
0.00177174
0.00182784
0.00188299
0.00193709
0.00199005
0.00204177
0.00209215
0.0021411
0.00218852
0.00223433
0.00227844
0.00232077
0.00236126
0.00239983
0.00243643
0.00247101
0.00250353
0.00253397
0.00256231
0.00258855
0.0026127
0.00263478
0.00265486
0.00267251
0.000917703
0.000849803
0.000793288
0.00074611
0.000706663
0.000673689
0.0006462
0.000623416
0.000604718
0.000589612
0.000577699
0.000568655
0.000562217
0.000558162
0.000556301
0.000556457
0.000558477
0.000562222
0.000567542
0.000574297
0.000582362
0.000591617
0.000601942
0.000613221
0.000625342
0.000638193
0.000651667
0.00066566
0.000680069
0.000694797
0.000709746
0.000724819
0.00073991
0.000754893
0.000769572
0.000783488
0.000916342
0.000846104
0.000786488
0.000735575
0.000691864
0.000654176
0.000621582
0.000593343
0.000568863
0.000547665
0.000529359
0.000513628
0.000500211
0.000488891
0.000479486
0.000471854
0.000465862
0.000461394
0.000458326
0.000456535
0.00045592
0.000456387
0.000457844
0.000460202
0.000463376
0.000467282
0.000471839
0.000476969
0.000482593
0.000488639
0.000495033
0.000501699
0.000508558
0.000515514
0.000522426
0.000528956
0.000916326
0.000846022
0.00078631
0.000735269
0.000691398
0.000653517
0.000620694
0.000592189
0.000567408
0.000545875
0.000527203
0.00051108
0.000497246
0.000485488
0.000475625
0.000467503
0.000460986
0.000455953
0.000452294
0.000449877
0.000448591
0.00044834
0.000449028
0.000450566
0.000452867
0.000455845
0.00045942
0.000463512
0.000468047
0.00047295
0.000478152
0.00048358
0.000489161
0.000494804
0.000500381
0.000505584
0.000916321
0.000845995
0.000786241
0.00073514
0.00069119
0.000653211
0.000620274
0.000591642
0.000566726
0.000545057
0.000526252
0.000510004
0.000496059
0.000484208
0.000474272
0.000466102
0.000459565
0.000454541
0.00045092
0.000448579
0.000447392
0.000447259
0.000448084
0.00044977
0.000452227
0.000455368
0.000459106
0.000463359
0.000468049
0.000473099
0.000478436
0.000483986
0.000489672
0.000495403
0.000501049
0.0005063
0.000916315
0.000845963
0.000786157
0.000734975
0.000690913
0.000652792
0.000619685
0.000590859
0.000565814
0.000544059
0.000525176
0.000508813
0.000494678
0.000482569
0.000472398
0.000464018
0.000457298
0.000452121
0.00044838
0.000445971
0.000444749
0.000444609
0.000445452
0.000447181
0.000449704
0.000452928
0.000456765
0.000461131
0.000465942
0.000471121
0.000476589
0.000482272
0.000488088
0.000493946
0.000499713
0.000505081
0.000916308
0.000845928
0.000786066
0.000734794
0.000690609
0.000652332
0.000619121
0.000590308
0.000565283
0.000543542
0.000524666
0.000508306
0.000494168
0.000482003
0.000471601
0.000462991
0.000456091
0.000450786
0.000446967
0.000444533
0.000443351
0.000443293
0.000444257
0.000446142
0.00044885
0.000452284
0.000456352
0.000460964
0.000466032
0.000471473
0.000477207
0.000483155
0.000489232
0.000495344
0.000501355
0.000506954
0.000916299
0.000845888
0.00078596
0.000734585
0.000690257
0.000651921
0.000618728
0.000589929
0.000564913
0.000543174
0.000524295
0.000507926
0.000493774
0.000481591
0.000471167
0.000462325
0.000455105
0.000449539
0.000445518
0.000442938
0.000441687
0.000441606
0.00044259
0.000444534
0.000447334
0.00045089
0.000455104
0.00045988
0.000465129
0.000470761
0.000476692
0.000482839
0.000489115
0.000495422
0.000501622
0.000507404
0.00091629
0.000845842
0.000785842
0.000734352
0.000689965
0.000651644
0.000618462
0.000589671
0.000564656
0.000542914
0.000524025
0.000507641
0.000493469
0.000481262
0.000470812
0.000461941
0.000454497
0.000448658
0.000444435
0.000441723
0.000440417
0.000440351
0.000441403
0.000443462
0.000446419
0.000450167
0.000454603
0.000459625
0.000465136
0.000471044
0.000477258
0.00048369
0.00049025
0.000496836
0.000503307
0.000509347
0.000916279
0.000845792
0.000785712
0.000734121
0.000689748
0.000651439
0.000618266
0.000589478
0.000564462
0.000542712
0.000523809
0.000507404
0.000493207
0.000480971
0.000470489
0.000461584
0.000454105
0.000447928
0.000443444
0.000440545
0.000439124
0.000439028
0.000440105
0.000442239
0.000445315
0.000449219
0.000453842
0.000459077
0.000464819
0.00047097
0.000477435
0.000484123
0.000490937
0.000497772
0.000504486
0.000510759
0.000916267
0.000845738
0.000785572
0.00073399
0.000689626
0.000651323
0.000618154
0.000589366
0.000564343
0.00054258
0.000523658
0.000507229
0.000493001
0.000480731
0.000470212
0.00046127
0.000453754
0.000447538
0.000442757
0.000439647
0.000438094
0.000437959
0.000439059
0.000441274
0.00044448
0.000448558
0.000453389
0.00045886
0.000464862
0.000471288
0.000478039
0.000485016
0.000492121
0.000499244
0.000506239
0.000512783
0.000916255
0.00084568
0.000785432
0.000733859
0.000689505
0.000651212
0.000618048
0.00058926
0.000564232
0.000542457
0.000523517
0.000507062
0.000492804
0.000480499
0.000469942
0.00046096
0.000453406
0.000447152
0.000442092
0.000438755
0.000437057
0.00043687
0.000437984
0.000440269
0.000443597
0.000447839
0.000452871
0.000458571
0.000464823
0.000471516
0.000478542
0.0004858
0.000493185
0.000500583
0.000507845
0.000514648
0.000916242
0.000845623
0.000785378
0.000733812
0.000689465
0.000651176
0.000618014
0.000589223
0.000564186
0.000542396
0.000523433
0.000506951
0.00049266
0.000480317
0.00046972
0.000460696
0.0004531
0.000446807
0.00044171
0.000438117
0.000436246
0.000435975
0.000437078
0.00043941
0.000442835
0.00044722
0.000452431
0.000458341
0.000464826
0.000471769
0.000479059
0.000486586
0.000494242
0.00050191
0.000509437
0.000516496
0.000916229
0.000845567
0.000785327
0.000733767
0.000689427
0.000651144
0.000617984
0.000589191
0.000564146
0.000542342
0.000523359
0.000506851
0.000492528
0.00048015
0.000469514
0.00046045
0.000452815
0.000446484
0.000441352
0.000437518
0.000435488
0.000435132
0.00043623
0.000438614
0.000442142
0.000446672
0.000452064
0.000458184
0.000464901
0.000472092
0.000479639
0.000487427
0.000495346
0.000503272
0.00051105
0.000518351
0.000916217
0.000845517
0.000785281
0.000733727
0.000689393
0.000651115
0.000617958
0.000589163
0.000564112
0.000542296
0.000523295
0.000506764
0.000492412
0.000480001
0.00046933
0.000460228
0.000452555
0.000446187
0.00044102
0.000436966
0.000434748
0.000434271
0.000435324
0.000437715
0.000441294
0.000445914
0.000451431
0.000457701
0.000464592
0.000471973
0.000479722
0.000487721
0.000495853
0.000503995
0.000511987
0.000519497
0.000916207
0.000845474
0.000785242
0.000733693
0.000689365
0.000651092
0.000617937
0.000589142
0.000564086
0.00054226
0.000523245
0.000506694
0.00049232
0.000479883
0.000469182
0.000460051
0.000452348
0.000445951
0.000440758
0.00043668
0.000434326
0.000433772
0.000434808
0.000437225
0.00044087
0.000445589
0.000451233
0.000457654
0.000464712
0.000472272
0.000480209
0.000488399
0.000496722
0.000505051
0.000513224
0.00052091
0.0009162
0.000845443
0.000785214
0.000733669
0.000689345
0.000651075
0.000617922
0.000589127
0.000564067
0.000542235
0.000523209
0.000506645
0.000492253
0.000479795
0.000469071
0.000459915
0.000452185
0.000445762
0.000440542
0.000436438
0.000433905
0.00043321
0.00043416
0.000436524
0.000440143
0.000444863
0.000450529
0.000456992
0.000464108
0.000471742
0.000479762
0.000488045
0.000496468
0.000504901
0.000513182
0.000520974
0.000916196
0.000845427
0.000785198
0.000733656
0.000689334
0.000651066
0.000617914
0.000589119
0.000564058
0.000542222
0.000523191
0.00050662
0.000492219
0.000479752
0.000469018
0.000459851
0.000452111
0.000445679
0.000440451
0.00043634
0.000433771
0.000433064
0.000434022
0.000436409
0.000440068
0.00044484
0.000450568
0.000457101
0.000464293
0.000472005
0.000480106
0.00048847
0.000496971
0.00050548
0.000513831
0.000521691
0.000916196
0.000845425
0.000785197
0.000733654
0.000689332
0.000651064
0.000617913
0.000589117
0.000564055
0.000542219
0.000523187
0.000506614
0.000492212
0.000479741
0.000469004
0.000459832
0.000452085
0.000445645
0.000440407
0.000436285
0.000433619
0.000432814
0.000433688
0.000435993
0.000439572
0.000444267
0.000449922
0.000456387
0.000463517
0.000471172
0.000479221
0.000487539
0.000496001
0.000504476
0.000512798
0.000520633
0.000916199
0.000845439
0.00078521
0.000733665
0.00068934
0.000651071
0.000617918
0.000589121
0.00056406
0.000542226
0.000523198
0.000506629
0.000492233
0.000479769
0.000469038
0.000459873
0.000452133
0.000445698
0.000440465
0.000436346
0.000433691
0.000432881
0.000433739
0.000436018
0.000439562
0.000444215
0.000449823
0.000456236
0.000463311
0.000470909
0.000478899
0.000487157
0.000495559
0.000503973
0.000512236
0.000520011
0.000916206
0.000845467
0.000785235
0.000733687
0.000689358
0.000651084
0.000617929
0.000589132
0.000564073
0.000542243
0.000523223
0.000506665
0.000492281
0.000479831
0.000469115
0.000459965
0.000452238
0.000445814
0.000440589
0.000436473
0.000433818
0.00043297
0.000433765
0.000435955
0.000439387
0.00044391
0.000449374
0.000455633
0.000462546
0.000469978
0.000477803
0.000485897
0.000494138
0.000502397
0.000510511
0.000518143
0.000916215
0.000845507
0.000785272
0.000733718
0.000689384
0.000651105
0.000617946
0.000589149
0.000564094
0.000542273
0.000523265
0.000506723
0.000492359
0.000479932
0.000469241
0.000460116
0.000452414
0.000446014
0.00044081
0.000436712
0.00043416
0.000433363
0.000434159
0.000436313
0.000439678
0.000444106
0.000449452
0.000455575
0.000462338
0.000469611
0.00047727
0.000485195
0.000493266
0.000501357
0.000509305
0.000516775
0.000916226
0.000845557
0.000785317
0.000733757
0.000689416
0.000651131
0.00061797
0.000589173
0.000564124
0.000542313
0.000523321
0.0005068
0.000492461
0.000480063
0.000469402
0.000460308
0.000452637
0.000446266
0.000441087
0.00043701
0.00043457
0.000433819
0.000434599
0.000436687
0.000439944
0.000444228
0.0004494
0.000455326
0.000461875
0.000468921
0.000476345
0.000484032
0.000491865
0.000499722
0.000507442
0.000514692
0.000916239
0.000845611
0.000785367
0.0007338
0.000689452
0.000651163
0.000617998
0.000589203
0.000564161
0.000542363
0.00052339
0.000506893
0.000492584
0.000480219
0.000469595
0.000460539
0.000452906
0.00044657
0.000441423
0.000437417
0.00043515
0.000434498
0.000435301
0.000437357
0.000440534
0.000444696
0.000449714
0.000455457
0.000461801
0.000468628
0.000475822
0.000483273
0.00049087
0.000498491
0.000505981
0.000513007
0.000916252
0.000845669
0.00078542
0.000733847
0.000689493
0.000651198
0.000618031
0.000589239
0.000564205
0.000542421
0.000523469
0.000507
0.000492723
0.000480395
0.000469809
0.000460794
0.0004532
0.000446902
0.00044179
0.000438023
0.000435911
0.000435338
0.000436137
0.000438131
0.000441195
0.0004452
0.000450023
0.000455541
0.000461638
0.000468201
0.00047512
0.000482291
0.000489607
0.00049695
0.000504168
0.000510931
0.000916265
0.000845727
0.000785544
0.000733962
0.000689598
0.000651295
0.000618124
0.000589332
0.000564304
0.000542533
0.0005236
0.000507157
0.000492911
0.000480618
0.000470072
0.000461097
0.000453543
0.000447283
0.000442207
0.000438703
0.000436771
0.000436299
0.000437115
0.000439068
0.000442039
0.000445908
0.000450558
0.000455874
0.000461746
0.000468067
0.000474734
0.000481648
0.000488704
0.000495792
0.00050276
0.000509281
0.000916277
0.000845782
0.000785686
0.000734095
0.000689722
0.000651412
0.000618237
0.000589445
0.000564423
0.000542665
0.000523751
0.000507333
0.000493118
0.00048086
0.000470352
0.000461416
0.000453901
0.000447678
0.000442818
0.000439552
0.000437775
0.000437381
0.00043819
0.000440078
0.000442931
0.000446638
0.000451088
0.000456173
0.00046179
0.000467839
0.000474222
0.000480845
0.000487611
0.00049441
0.000501097
0.000507347
0.000916288
0.000845833
0.000785819
0.000734305
0.00068992
0.000651599
0.000618416
0.000589622
0.000564604
0.000542855
0.000523957
0.000507561
0.000493373
0.000481147
0.000470673
0.000461773
0.000454295
0.000448134
0.000443592
0.000440565
0.000438952
0.00043864
0.000439461
0.000441308
0.000444073
0.000447651
0.000451939
0.000456835
0.000462242
0.000468065
0.000474213
0.000480596
0.000487121
0.000493683
0.000500138
0.000506165
0.000916298
0.00084588
0.00078594
0.000734545
0.000690186
0.000651852
0.00061866
0.00058986
0.000564842
0.000543099
0.000524213
0.000507834
0.000493668
0.000481469
0.000471024
0.000462154
0.000454708
0.000448862
0.00044456
0.000441702
0.000440187
0.00043989
0.00044067
0.000442426
0.000445056
0.000448461
0.000452543
0.000457208
0.000462364
0.000467922
0.000473796
0.000479901
0.000486147
0.000492434
0.000498622
0.000504394
0.000916306
0.000845922
0.000786049
0.000734759
0.000690548
0.000652236
0.000619028
0.000590217
0.000565192
0.000543448
0.000524568
0.0005082
0.000494051
0.000481872
0.000471451
0.00046262
0.000455493
0.000449956
0.000445902
0.000443232
0.000441848
0.000441605
0.000442394
0.000444118
0.000446678
0.000449981
0.000453934
0.000458448
0.000463435
0.000468813
0.000474498
0.000480409
0.000486462
0.000492559
0.000498561
0.000504153
0.000916314
0.000845958
0.000786143
0.000734945
0.000690861
0.00065271
0.000619563
0.000590729
0.000565687
0.000543933
0.000525047
0.000508679
0.000494536
0.000482367
0.000472023
0.00046346
0.00045655
0.000451177
0.000447235
0.000444623
0.000443236
0.000442936
0.000443627
0.000445215
0.000447609
0.000450718
0.000454456
0.000458736
0.000463478
0.000468601
0.000474027
0.000479679
0.000485476
0.000491323
0.000497084
0.000502449
0.00091632
0.000845991
0.00078623
0.000735116
0.000691147
0.000653142
0.000620171
0.000591496
0.000566529
0.000544799
0.000525923
0.000509593
0.000495555
0.000483597
0.000473544
0.000465243
0.000458564
0.000453388
0.000449609
0.000447125
0.000445807
0.000445546
0.000446246
0.000447817
0.000450168
0.000453213
0.000456868
0.000461051
0.000465683
0.000470689
0.000475993
0.000481521
0.000487194
0.00049292
0.000498565
0.000503817
0.000916326
0.000846019
0.0007863
0.000735249
0.000691362
0.000653458
0.000620606
0.000592063
0.000567236
0.000545648
0.000526911
0.000510711
0.00049679
0.000484933
0.000474961
0.000466717
0.000460069
0.000454897
0.000451091
0.000448553
0.000447147
0.000446777
0.000447352
0.000448784
0.000450987
0.000453879
0.000457378
0.000461407
0.000465891
0.000470755
0.000475929
0.000481341
0.000486913
0.000492555
0.000498136
0.000503346
0.000916342
0.000846101
0.000786481
0.000735559
0.000691834
0.000654126
0.000621507
0.000593235
0.000568715
0.000547467
0.000529103
0.000513303
0.000499807
0.000488398
0.000478899
0.000471164
0.000465061
0.000460473
0.000457295
0.000455403
0.000454687
0.000455056
0.000456421
0.000458694
0.000461793
0.000465634
0.000470138
0.000475226
0.000480823
0.000486852
0.00049324
0.000499911
0.000506785
0.000513763
0.000520702
0.000527261
0.000917704
0.000849803
0.000793286
0.000746105
0.000706653
0.000673672
0.000646173
0.000623377
0.000604664
0.000589538
0.0005776
0.000568527
0.000562052
0.000557955
0.00055604
0.000556134
0.000558086
0.000561759
0.000567023
0.000573724
0.000581738
0.000590945
0.000601228
0.000612473
0.000624568
0.000637404
0.000650874
0.000664873
0.0006793
0.000694055
0.000709041
0.000724159
0.000739301
0.00075434
0.000769077
0.00078305
0.00105985
0.00111972
0.00117985
0.0012401
0.00130038
0.00136058
0.00142062
0.00148039
0.0015398
0.00159874
0.00165712
0.00171484
0.00177181
0.00182794
0.00188312
0.00193726
0.00199026
0.00204204
0.00209248
0.0021415
0.00218901
0.00223492
0.00227914
0.0023216
0.00236222