/*--------------------------------*- C++ -*----------------------------------*\
  =========                 |
  \\      /  F ield         | OpenFOAM: The Open Source CFD Toolbox
   \\    /   O peration     | Website:  https://openfoam.org
    \\  /    A nd           | Version:  10
     \\/     M anipulation  |
\*---------------------------------------------------------------------------*/
FoamFile
{
    format      ascii;
    class       volScalarField;
    location    "68";
    object      nut;
}
// * * * * * * * * * * * * * * * * * * * * * * * * * * * * * * * * * * * * * //

dimensions      [0 2 -1 0 0 0 0];

internalField   nonuniform List<scalar> 
127913
(
0.000182822
0.000188018
0.000193139
0.000198173
0.000203114
0.000207956
0.000212693
0.00021732
0.000221833
0.000226227
0.000230499
0.000234645
0.000238662
0.000242547
0.000246297
0.00024991
0.000253382
0.000256712
0.000259898
0.000262937
0.000265829
0.000268571
0.000271162
0.000273603
0.000275892
0.00027803
0.000280018
0.000281856
0.000283546
0.000285091
0.000286493
0.000287754
0.00028888
0.000289874
0.000290744
0.000291464
0.000182771
0.000187862
0.00019284
0.000197703
0.00020245
0.000207084
0.000211604
0.000216009
0.0002203
0.000224477
0.000228538
0.000232484
0.000236313
0.000240026
0.00024362
0.000247095
0.00025045
0.000253683
0.000256794
0.00025978
0.000262641
0.000265376
0.000267983
0.000270461
0.000272811
0.000275031
0.000277122
0.000279084
0.000280917
0.000282623
0.000284203
0.00028566
0.000286995
0.000288211
0.000289315
0.000290283
0.000182768
0.000187853
0.000192822
0.000197673
0.000202408
0.000207026
0.000211529
0.000215917
0.00022019
0.000224349
0.000228393
0.000232322
0.000236136
0.000239834
0.000243417
0.000246882
0.000250229
0.000253458
0.000256567
0.000259555
0.000262422
0.000265167
0.000267789
0.000270288
0.000272664
0.000274916
0.000277046
0.000279052
0.000280938
0.000282702
0.000284349
0.000285878
0.000287293
0.000288597
0.000289793
0.000290861
0.000182766
0.000187848
0.000192812
0.000197659
0.000202389
0.000207003
0.000211502
0.000215887
0.000220158
0.000224314
0.000228357
0.000232286
0.0002361
0.000239799
0.000243383
0.00024685
0.0002502
0.000253432
0.000256545
0.000259538
0.00026241
0.00026516
0.000267789
0.000270295
0.000272679
0.000274941
0.00027708
0.000279098
0.000280996
0.000282775
0.000284438
0.000285985
0.000287419
0.000288744
0.000289963
0.000291058
0.000182765
0.000187847
0.000192811
0.000197657
0.000202387
0.000207002
0.000211502
0.000215888
0.000220161
0.00022432
0.000228365
0.000232297
0.000236115
0.000239819
0.000243407
0.00024688
0.000250235
0.000253473
0.000256592
0.000259591
0.000262469
0.000265225
0.00026786
0.000270372
0.000272761
0.000275027
0.000277171
0.000279194
0.000281096
0.000282879
0.000284545
0.000286095
0.000287533
0.000288861
0.000290083
0.000291179
0.000182765
0.000187846
0.00019281
0.000197656
0.000202385
0.000207
0.000211502
0.000215889
0.000220157
0.000224307
0.000228344
0.00023227
0.000236089
0.0002398
0.000243397
0.000246879
0.000250244
0.000253492
0.000256621
0.00025963
0.000262518
0.000265285
0.000267929
0.00027045
0.000272847
0.000275122
0.000277274
0.000279303
0.000281212
0.000283
0.00028467
0.000286225
0.000287666
0.000288997
0.000290221
0.000291319
0.000182765
0.000187846
0.00019281
0.000197657
0.000202388
0.000207004
0.000211501
0.000215874
0.000220126
0.000224261
0.000228283
0.000232197
0.000236006
0.000239713
0.000243322
0.000246819
0.000250201
0.000253465
0.000256611
0.000259636
0.00026254
0.000265323
0.000267982
0.000270518
0.000272929
0.000275217
0.000277381
0.000279422
0.000281341
0.000283139
0.000284818
0.000286379
0.000287827
0.000289163
0.000290391
0.000291492
0.000182765
0.000187847
0.000192811
0.000197658
0.000202391
0.000206999
0.000211479
0.000215834
0.000220067
0.000224183
0.000228188
0.000232085
0.00023588
0.000239577
0.000243178
0.000246685
0.000250088
0.000253373
0.00025654
0.000259587
0.000262512
0.000265314
0.000267993
0.000270548
0.000272977
0.000275282
0.000277463
0.000279519
0.000281452
0.000283263
0.000284953
0.000286526
0.000287983
0.000289328
0.000290564
0.000291671
0.000182765
0.000187847
0.000192812
0.00019766
0.000202386
0.000206979
0.000211441
0.000215776
0.000219989
0.000224086
0.000228072
0.000231953
0.000235734
0.00023942
0.000243015
0.000246521
0.000249938
0.000253248
0.00025644
0.000259511
0.00026246
0.000265286
0.000267987
0.000270564
0.000273015
0.00027534
0.00027754
0.000279614
0.000281563
0.00028339
0.000285095
0.000286681
0.000288149
0.000289505
0.00029075
0.000291865
0.000182766
0.000187848
0.000192813
0.000197661
0.000202372
0.000206948
0.00021139
0.000215704
0.000219896
0.00022397
0.000227936
0.000231798
0.000235564
0.000239238
0.000242825
0.000246327
0.000249746
0.000253082
0.000256301
0.000259398
0.000262374
0.000265225
0.000267952
0.000270553
0.000273027
0.000275375
0.000277595
0.000279689
0.000281658
0.000283502
0.000285223
0.000286824
0.000288306
0.000289674
0.000290931
0.000292055
0.000182766
0.000187848
0.000192814
0.000197651
0.000202348
0.000206906
0.000211327
0.000215619
0.000219787
0.000223839
0.000227783
0.000231626
0.000235375
0.000239037
0.000242615
0.000246114
0.000249534
0.000252876
0.000256124
0.000259251
0.000262255
0.000265135
0.00026789
0.000270517
0.000273017
0.000275389
0.000277632
0.000279748
0.000281738
0.000283601
0.00028534
0.000286958
0.000288456
0.000289837
0.000291107
0.000292242
0.000182766
0.000187849
0.000192815
0.00019764
0.000202322
0.00020686
0.00021126
0.000215528
0.000219672
0.0002237
0.000227621
0.000231444
0.000235176
0.000238824
0.000242393
0.000245887
0.000249307
0.000252655
0.000255929
0.000259085
0.000262119
0.000265027
0.000267809
0.000270463
0.000272988
0.000275385
0.000277652
0.00027979
0.000281801
0.000283684
0.000285442
0.000287076
0.00028859
0.000289986
0.000291269
0.000292416
0.000182766
0.000187849
0.000192808
0.000197622
0.000202288
0.000206808
0.000211186
0.00021543
0.00021955
0.000223554
0.000227452
0.000231255
0.00023497
0.000238604
0.000242163
0.000245652
0.000249072
0.000252425
0.000255708
0.000258894
0.000261956
0.000264893
0.000267702
0.000270383
0.000272935
0.000275356
0.000277647
0.000279808
0.00028184
0.000283743
0.00028552
0.000287172
0.000288703
0.000290114
0.000291411
0.00029257
0.000182766
0.000187849
0.000192802
0.000197604
0.000202255
0.000206757
0.000211114
0.000215335
0.000219431
0.000223412
0.000227289
0.000231071
0.000234769
0.00023839
0.000241939
0.000245422
0.000248842
0.000252198
0.000255489
0.000258703
0.000261792
0.000264755
0.00026759
0.000270296
0.000272871
0.000275316
0.000277629
0.000279811
0.000281863
0.000283786
0.000285581
0.00028725
0.000288796
0.000290221
0.000291531
0.000292703
0.000182766
0.00018785
0.000192795
0.000197588
0.000202226
0.00020671
0.000211048
0.000215249
0.000219323
0.000223283
0.000227139
0.000230904
0.000234585
0.000238193
0.000241733
0.00024521
0.000248626
0.000251984
0.000255281
0.000258515
0.000261629
0.000264616
0.000267474
0.000270203
0.0002728
0.000275266
0.000277599
0.0002798
0.00028187
0.00028381
0.000285621
0.000287305
0.000288865
0.000290305
0.000291627
0.000292809
0.000182766
0.00018785
0.00019279
0.000197575
0.000202201
0.000206671
0.000210993
0.000215176
0.000219233
0.000223174
0.000227014
0.000230763
0.000234432
0.000238028
0.00024156
0.000245032
0.000248447
0.000251806
0.000255108
0.000258351
0.000261484
0.000264491
0.000267368
0.000270115
0.00027273
0.000275213
0.000277563
0.000279781
0.000281866
0.000283821
0.000285646
0.000287343
0.000288915
0.000290366
0.000291699
0.000292891
0.000182766
0.00018785
0.000192786
0.000197565
0.000202182
0.000206642
0.000210952
0.000215123
0.000219166
0.000223095
0.000226922
0.00023066
0.000234318
0.000237906
0.00024143
0.000244897
0.000248308
0.000251666
0.000254969
0.000258213
0.000261362
0.000264384
0.000267276
0.000270037
0.000272665
0.000275161
0.000277524
0.000279753
0.00028185
0.000283816
0.000285651
0.000287358
0.00028894
0.000290399
0.00029174
0.00029294
0.000182766
0.00018785
0.000192784
0.000197559
0.000202172
0.000206627
0.00021093
0.000215094
0.00021913
0.000223052
0.000226873
0.000230604
0.000234257
0.000237841
0.000241362
0.000244827
0.000248238
0.000251596
0.000254901
0.00025815
0.000261306
0.000264335
0.000267234
0.000270002
0.000272637
0.00027514
0.000277509
0.000279744
0.000281847
0.000283818
0.000285659
0.000287371
0.000288958
0.000290422
0.000291767
0.000292971
0.000182766
0.00018785
0.000192784
0.000197559
0.000202171
0.000206625
0.000210928
0.000215091
0.000219126
0.000223047
0.000226867
0.000230597
0.000234249
0.000237831
0.00024135
0.000244813
0.000248221
0.000251576
0.000254878
0.000258122
0.00026128
0.000264311
0.000267211
0.000269981
0.000272618
0.000275122
0.000277493
0.00027973
0.000281834
0.000283807
0.000285649
0.000287363
0.000288951
0.000290416
0.000291762
0.000292967
0.000182766
0.00018785
0.000192786
0.000197563
0.000202179
0.000206638
0.000210946
0.000215114
0.000219155
0.000223081
0.000226905
0.00023064
0.000234295
0.000237879
0.0002414
0.000244862
0.000248269
0.000251622
0.00025492
0.00025816
0.000261312
0.000264337
0.000267232
0.000269997
0.000272629
0.000275128
0.000277495
0.000279728
0.000281828
0.000283797
0.000285636
0.000287347
0.000288932
0.000290394
0.000291738
0.00029294
0.000182766
0.00018785
0.000192789
0.000197572
0.000202196
0.000206664
0.000210982
0.000215161
0.000219213
0.00022315
0.000226985
0.000230728
0.000234391
0.00023798
0.000241504
0.000244967
0.000248371
0.00025172
0.000255011
0.000258242
0.000261382
0.000264395
0.00026728
0.000270033
0.000272655
0.000275145
0.000277502
0.000279726
0.000281818
0.000283779
0.00028561
0.000287314
0.000288892
0.000290349
0.000291687
0.000292884
0.000182766
0.00018785
0.000192794
0.000197585
0.00020222
0.0002067
0.000211034
0.000215229
0.000219298
0.000223251
0.0002271
0.000230857
0.000234531
0.000238129
0.000241659
0.000245124
0.000248529
0.000251874
0.000255159
0.000258381
0.000261503
0.000264498
0.000267365
0.000270102
0.000272708
0.000275183
0.000277525
0.000279735
0.000281814
0.000283763
0.000285583
0.000287275
0.000288844
0.00029029
0.00029162
0.00029281
0.000182766
0.000187849
0.0001928
0.000197601
0.000202248
0.000206745
0.000211097
0.000215313
0.000219401
0.000223374
0.000227242
0.000231016
0.000234703
0.000238313
0.00024185
0.000245319
0.000248723
0.000252064
0.00025534
0.000258549
0.000261649
0.000264622
0.000267468
0.000270184
0.00027277
0.000275225
0.000277549
0.000279742
0.000281804
0.000283737
0.000285542
0.000287221
0.000288776
0.000290211
0.00029153
0.000292709
0.000182766
0.000187849
0.000192807
0.000197618
0.000202281
0.000206796
0.000211168
0.000215406
0.000219517
0.000223513
0.000227402
0.000231194
0.000234898
0.00023852
0.000242066
0.00024554
0.000248945
0.000252281
0.000255549
0.000258745
0.000261817
0.000264764
0.000267584
0.000270276
0.000272838
0.00027527
0.000277573
0.000279745
0.000281788
0.000283702
0.00028549
0.000287153
0.000288693
0.000290114
0.00029142
0.000292589
0.000182766
0.000187849
0.000192814
0.000197636
0.000202314
0.000206848
0.000211242
0.000215503
0.000219639
0.000223658
0.000227569
0.000231382
0.000235102
0.000238738
0.000242293
0.000245772
0.000249177
0.000252509
0.000255767
0.000258934
0.000261978
0.000264897
0.000267691
0.000270356
0.000272894
0.000275302
0.000277582
0.000279732
0.000281754
0.00028365
0.000285419
0.000287065
0.00028859
0.000289997
0.00029129
0.000292447
0.000182766
0.000187848
0.000192814
0.000197649
0.000202342
0.000206895
0.000211311
0.000215596
0.000219756
0.000223799
0.000227734
0.000231566
0.000235304
0.000238953
0.000242518
0.000246002
0.000249407
0.000252735
0.000255983
0.00025912
0.000262135
0.000265026
0.000267791
0.00027043
0.000272942
0.000275325
0.000277581
0.000279709
0.00028171
0.000283586
0.000285337
0.000286965
0.000288474
0.000289867
0.000291146
0.000292291
0.000182766
0.000187848
0.000192813
0.000197658
0.000202367
0.000206938
0.000211376
0.000215683
0.000219867
0.000223934
0.00022789
0.000231743
0.000235498
0.00023916
0.000242734
0.000246222
0.000249627
0.000252949
0.000256177
0.000259284
0.00026227
0.000265132
0.00026787
0.000270482
0.000272968
0.000275327
0.000277559
0.000279665
0.000281646
0.000283502
0.000285235
0.000286847
0.00028834
0.000289719
0.000290986
0.00029212
0.000182765
0.000187847
0.000192812
0.000197661
0.000202383
0.000206972
0.00021143
0.000215759
0.000219966
0.000224055
0.000228032
0.000231904
0.000235675
0.00023935
0.000242933
0.000246426
0.000249832
0.000253149
0.000256348
0.000259427
0.000262385
0.00026522
0.000267932
0.000270519
0.00027298
0.000275316
0.000277526
0.000279611
0.000281572
0.00028341
0.000285126
0.000286722
0.000288202
0.000289567
0.000290823
0.000291947
0.000182765
0.000187847
0.000192811
0.000197658
0.000202391
0.000206996
0.000211472
0.000215821
0.000220049
0.000224158
0.000228155
0.000232044
0.000235829
0.000239516
0.000243106
0.000246603
0.000250007
0.0002533
0.000256473
0.000259528
0.000262461
0.000265272
0.00026796
0.000270524
0.000272964
0.000275279
0.000277469
0.000279536
0.000281479
0.000283301
0.000285002
0.000286585
0.000288052
0.000289407
0.000290653
0.000291769
0.000182765
0.000187847
0.00019281
0.000197657
0.000202388
0.000207005
0.000211498
0.000215866
0.000220113
0.000224242
0.000228257
0.000232163
0.000235964
0.000239663
0.000243262
0.000246764
0.000250151
0.00025342
0.000256571
0.000259603
0.000262515
0.000265304
0.000267972
0.000270516
0.000272936
0.000275233
0.000277407
0.000279457
0.000281386
0.000283194
0.000284883
0.000286454
0.000287911
0.000289257
0.000290494
0.000291604
0.000182765
0.000187846
0.00019281
0.000197656
0.000202386
0.000207001
0.000211502
0.000215887
0.00022015
0.000224295
0.000228325
0.000232245
0.000236057
0.000239763
0.000243364
0.00024685
0.000250219
0.000253471
0.000256606
0.00025962
0.000262515
0.000265288
0.000267939
0.000270468
0.000272873
0.000275156
0.000277317
0.000279355
0.000281273
0.000283071
0.000284751
0.000286314
0.000287764
0.000289104
0.000290337
0.000291444
0.000182765
0.000187847
0.000192811
0.000197657
0.000202387
0.000207002
0.000211503
0.000215889
0.000220162
0.000224322
0.000228368
0.0002323
0.000236119
0.000239823
0.000243413
0.000246887
0.000250245
0.000253486
0.000256608
0.000259611
0.000262493
0.000265255
0.000267895
0.000270413
0.000272808
0.000275082
0.000277234
0.000279264
0.000281174
0.000282965
0.000284639
0.000286198
0.000287644
0.00028898
0.00029021
0.000291314
0.000182766
0.000187848
0.000192812
0.000197659
0.000202389
0.000207003
0.000211503
0.000215888
0.000220159
0.000224317
0.00022836
0.00023229
0.000236105
0.000239806
0.000243391
0.000246861
0.000250213
0.000253448
0.000256564
0.000259561
0.000262438
0.000265194
0.000267828
0.00027034
0.000272731
0.000274999
0.000277146
0.000279172
0.000281078
0.000282866
0.000284536
0.000286091
0.000287534
0.000288867
0.000290094
0.000291196
0.000182768
0.000187853
0.000192822
0.000197674
0.000202408
0.000207027
0.00021153
0.000215918
0.000220192
0.000224351
0.000228396
0.000232326
0.000236141
0.000239841
0.000243425
0.000246892
0.000250242
0.000253474
0.000256587
0.000259579
0.000262451
0.000265201
0.000267829
0.000270334
0.000272717
0.000274976
0.000277113
0.000279127
0.000281021
0.000282794
0.000284448
0.000285986
0.000287409
0.000288721
0.000289925
0.000291
0.000182771
0.000187862
0.00019284
0.000197703
0.000202451
0.000207085
0.000211604
0.00021601
0.000220302
0.000224479
0.000228541
0.000232488
0.000236319
0.000240033
0.000243629
0.000247107
0.000250464
0.000253701
0.000256815
0.000259805
0.000262671
0.000265411
0.000268024
0.000270509
0.000272866
0.000275093
0.000277192
0.000279162
0.000281003
0.000282718
0.000284306
0.000285771
0.000287115
0.00028834
0.000289451
0.000290427
0.000182822
0.000188018
0.000193139
0.000198174
0.000203114
0.000207956
0.000212694
0.000217321
0.000221835
0.000226229
0.000230502
0.000234649
0.000238667
0.000242554
0.000246306
0.000249921
0.000253397
0.000256731
0.000259921
0.000262965
0.000265861
0.00026861
0.000271208
0.000273656
0.000275953
0.0002781
0.000280096
0.000281944
0.000283644
0.000285198
0.000286609
0.000287881
0.000289017
0.000290021
0.0002909
0.000291629
0.000182771
0.000187862
0.00019284
0.000197703
0.00020245
0.000207084
0.000211603
0.000216009
0.0002203
0.000224476
0.000228538
0.000232484
0.000236313
0.000240026
0.000243621
0.000247097
0.000250453
0.000253688
0.0002568
0.000259788
0.000262651
0.000265388
0.000267997
0.000270478
0.00027283
0.000275053
0.000277146
0.00027911
0.000280945
0.000282653
0.000284235
0.000285693
0.000287029
0.000288247
0.000289351
0.000290319
8.96067e-05
8.95658e-05
8.98484e-05
9.04331e-05
9.12914e-05
9.23946e-05
9.37151e-05
9.52264e-05
9.69018e-05
9.87141e-05
0.000100636
0.00010264
0.0001047
0.00010679
0.000108888
0.000110971
0.000113026
0.000115042
0.000117012
0.000118933
0.000120811
0.000122654
0.000124471
0.000126274
0.000128073
0.00012988
0.000131702
0.000133547
0.000135421
0.000137327
0.000139268
0.000141244
0.000143253
0.000145293
0.000147358
0.000149438
8.91932e-05
8.86348e-05
8.82918e-05
8.81456e-05
8.81758e-05
8.83639e-05
8.86948e-05
8.91538e-05
8.97276e-05
9.04029e-05
9.11665e-05
9.20046e-05
9.29026e-05
9.38452e-05
9.48166e-05
9.58039e-05
9.67927e-05
9.77704e-05
9.87239e-05
9.9641e-05
0.000100517
0.00010135
0.000102143
0.000102902
0.000103633
0.000104346
0.000105052
0.000105758
0.000106476
0.000107213
0.000107975
0.000108769
0.000109598
0.000110464
0.000111368
0.000112311
8.91895e-05
8.86225e-05
8.82651e-05
8.80978e-05
8.80996e-05
8.82521e-05
8.85391e-05
8.89466e-05
8.94616e-05
9.00716e-05
9.0764e-05
9.15261e-05
9.23438e-05
9.32026e-05
9.40868e-05
9.49808e-05
9.58693e-05
9.67386e-05
9.75769e-05
9.83705e-05
9.91121e-05
9.97997e-05
0.000100435
0.000101023
0.00010157
0.000102087
0.000102582
0.000103067
0.00010355
0.000104041
0.000104546
0.000105073
0.000105625
0.000106207
0.000106819
0.00010747
8.91879e-05
8.86165e-05
8.82515e-05
8.80729e-05
8.80599e-05
8.81943e-05
8.84605e-05
8.88452e-05
8.93365e-05
8.9923e-05
9.05933e-05
9.13351e-05
9.21353e-05
9.29792e-05
9.38513e-05
9.47358e-05
9.56169e-05
9.64801e-05
9.73132e-05
9.81034e-05
9.88405e-05
9.95222e-05
0.00010015
0.00010073
0.000101268
0.000101774
0.000102259
0.000102733
0.000103205
0.000103684
0.000104178
0.000104692
0.000105232
0.0001058
0.000106398
0.000107032
8.91857e-05
8.86087e-05
8.82336e-05
8.80398e-05
8.80063e-05
8.81149e-05
8.83508e-05
8.87019e-05
8.91692e-05
8.97383e-05
9.03926e-05
9.11157e-05
9.18911e-05
9.27073e-05
9.35566e-05
9.4423e-05
9.52903e-05
9.61434e-05
9.69693e-05
9.77578e-05
9.84945e-05
9.91759e-05
9.98031e-05
0.000100381
0.000100918
0.000101423
0.000101906
0.000102379
0.000102852
0.000103332
0.000103829
0.000104348
0.000104893
0.000105468
0.000106074
0.000106717
8.91831e-05
8.85995e-05
8.82125e-05
8.8001e-05
8.79437e-05
8.8023e-05
8.82378e-05
8.85855e-05
8.90503e-05
8.96159e-05
9.02659e-05
9.0984e-05
9.17541e-05
9.25605e-05
9.33885e-05
9.42365e-05
9.50905e-05
9.59343e-05
9.67538e-05
9.75377e-05
9.82736e-05
9.89538e-05
9.95792e-05
0.000100155
0.00010069
0.000101193
0.000101677
0.000102152
0.000102628
0.000103115
0.000103621
0.000104152
0.000104711
0.000105302
0.000105926
0.000106587
8.91801e-05
8.85886e-05
8.81877e-05
8.79553e-05
8.78703e-05
8.7936e-05
8.81493e-05
8.84945e-05
8.89557e-05
8.95168e-05
9.01614e-05
9.08735e-05
9.16371e-05
9.24369e-05
9.32584e-05
9.40882e-05
9.49232e-05
9.57536e-05
9.65636e-05
9.73409e-05
9.80755e-05
9.87541e-05
9.93772e-05
9.995e-05
0.000100481
0.000100981
0.000101461
0.000101934
0.00010241
0.000102899
0.000103409
0.000103945
0.000104513
0.000105115
0.000105751
0.000106425
8.91766e-05
8.85763e-05
8.81595e-05
8.79037e-05
8.78056e-05
8.787e-05
8.8081e-05
8.84229e-05
8.88796e-05
8.94351e-05
9.00733e-05
9.07783e-05
9.15344e-05
9.23267e-05
9.31409e-05
9.39639e-05
9.47842e-05
9.56014e-05
9.64029e-05
9.71746e-05
9.79068e-05
9.85844e-05
9.92057e-05
9.97757e-05
0.000100303
0.0001008
0.000101279
0.000101751
0.000102229
0.000102723
0.000103241
0.000103789
0.00010437
0.000104988
0.000105643
0.000106336
8.91728e-05
8.85626e-05
8.81284e-05
8.78517e-05
8.77529e-05
8.78157e-05
8.80242e-05
8.83622e-05
8.88139e-05
8.93633e-05
8.99944e-05
9.06915e-05
9.14394e-05
9.22234e-05
9.30296e-05
9.38452e-05
9.46588e-05
9.54613e-05
9.62535e-05
9.70194e-05
9.77476e-05
9.84249e-05
9.90448e-05
9.96122e-05
0.000100136
0.00010063
0.000101105
0.000101577
0.000102056
0.000102554
0.000103078
0.000103635
0.000104229
0.000104862
0.000105533
0.000106245
8.91686e-05
8.85478e-05
8.80949e-05
8.78177e-05
8.77177e-05
8.77784e-05
8.79836e-05
8.83171e-05
8.87631e-05
8.93055e-05
8.99287e-05
9.06173e-05
9.13562e-05
9.21312e-05
9.29287e-05
9.37363e-05
9.4543e-05
9.53391e-05
9.61219e-05
9.68823e-05
9.76072e-05
9.82848e-05
9.89036e-05
9.94687e-05
9.99899e-05
0.00010048
0.000100953
0.000101424
0.000101905
0.000102407
0.00010294
0.000103508
0.000104117
0.000104767
0.000105457
0.000106189
8.91642e-05
8.85323e-05
8.8061e-05
8.77836e-05
8.76826e-05
8.77414e-05
8.79435e-05
8.82728e-05
8.87131e-05
8.92488e-05
8.98642e-05
9.05443e-05
9.12743e-05
9.20403e-05
9.28291e-05
9.36288e-05
9.44284e-05
9.52187e-05
9.59922e-05
9.67474e-05
9.74694e-05
9.81478e-05
9.87662e-05
9.93294e-05
9.98476e-05
0.000100335
0.000100806
0.000101276
0.000101759
0.000102267
0.000102807
0.000103387
0.00010401
0.000104678
0.000105388
0.00010614
8.91598e-05
8.85167e-05
8.80452e-05
8.7767e-05
8.76646e-05
8.7721e-05
8.79196e-05
8.82442e-05
8.86786e-05
8.92072e-05
8.98145e-05
9.04858e-05
9.12066e-05
9.19634e-05
9.27434e-05
9.35348e-05
9.43271e-05
9.51113e-05
9.58799e-05
9.66303e-05
9.735e-05
9.80289e-05
9.86477e-05
9.92098e-05
9.97257e-05
0.00010021
0.000100679
0.000101148
0.000101633
0.000102145
0.000102693
0.000103284
0.000103921
0.000104605
0.000105333
0.000106106
8.91555e-05
8.85017e-05
8.803e-05
8.77512e-05
8.76476e-05
8.77019e-05
8.78973e-05
8.82175e-05
8.86465e-05
8.91685e-05
8.97684e-05
9.04315e-05
9.11439e-05
9.18921e-05
9.26637e-05
9.34474e-05
9.4233e-05
9.50114e-05
9.57756e-05
9.65216e-05
9.72395e-05
9.79175e-05
9.8537e-05
9.90982e-05
9.96121e-05
0.000100094
0.000100561
0.000101031
0.000101518
0.000102036
0.000102592
0.000103195
0.000103846
0.000104547
0.000105295
0.000106087
8.91516e-05
8.8488e-05
8.80163e-05
8.7737e-05
8.76323e-05
8.76847e-05
8.78774e-05
8.81938e-05
8.86179e-05
8.91342e-05
8.97276e-05
9.03835e-05
9.10882e-05
9.18287e-05
9.25929e-05
9.33695e-05
9.41486e-05
9.49216e-05
9.56812e-05
9.64222e-05
9.71376e-05
9.78141e-05
9.84345e-05
9.8995e-05
9.9507e-05
9.99864e-05
0.000100451
0.000100919
0.000101407
0.000101927
0.000102489
0.000103099
0.000103761
0.000104474
0.000105237
0.000106045
8.91483e-05
8.84767e-05
8.80048e-05
8.77252e-05
8.76196e-05
8.76706e-05
8.7861e-05
8.81744e-05
8.85946e-05
8.91063e-05
8.96943e-05
9.03444e-05
9.1043e-05
9.17774e-05
9.25355e-05
9.33066e-05
9.40808e-05
9.48496e-05
9.5606e-05
9.63447e-05
9.70595e-05
9.77359e-05
9.83574e-05
9.89176e-05
9.94283e-05
9.9906e-05
0.00010037
0.000100838
0.000101327
0.000101851
0.000102419
0.000103038
0.000103711
0.000104437
0.000105214
0.000106037
8.9146e-05
8.84684e-05
8.79965e-05
8.77166e-05
8.76105e-05
8.76604e-05
8.78492e-05
8.81604e-05
8.85779e-05
8.90862e-05
8.96704e-05
9.03163e-05
9.10104e-05
9.17401e-05
9.24935e-05
9.326e-05
9.40299e-05
9.47947e-05
9.55475e-05
9.62831e-05
9.69961e-05
9.76716e-05
9.8295e-05
9.88559e-05
9.93659e-05
9.98416e-05
0.000100303
0.000100768
0.000101255
0.000101777
0.000102344
0.000102964
0.000103639
0.000104369
0.00010515
0.000105979
8.91447e-05
8.84639e-05
8.79919e-05
8.7712e-05
8.76055e-05
8.76548e-05
8.78428e-05
8.81529e-05
8.85689e-05
8.90755e-05
8.96577e-05
9.03015e-05
9.09934e-05
9.17209e-05
9.24722e-05
9.32368e-05
9.4005e-05
9.47686e-05
9.55206e-05
9.62558e-05
9.6969e-05
9.7645e-05
9.82686e-05
9.88293e-05
9.93387e-05
9.9814e-05
0.000100275
0.000100741
0.000101229
0.000101753
0.000102324
0.000102948
0.000103628
0.000104364
0.000105152
0.000105987
8.91446e-05
8.84635e-05
8.79916e-05
8.77115e-05
8.7605e-05
8.76543e-05
8.78422e-05
8.81522e-05
8.8568e-05
8.90744e-05
8.96564e-05
9.02999e-05
9.09914e-05
9.17183e-05
9.2469e-05
9.32327e-05
9.39999e-05
9.47622e-05
9.55126e-05
9.6246e-05
9.69575e-05
9.7632e-05
9.82565e-05
9.88176e-05
9.93266e-05
9.98004e-05
0.000100258
0.00010072
0.000101204
0.000101723
0.000102288
0.000102905
0.000103578
0.000104307
0.000105089
0.000105918
8.91456e-05
8.84673e-05
8.79953e-05
8.77154e-05
8.76092e-05
8.76589e-05
8.78475e-05
8.81583e-05
8.85754e-05
8.90831e-05
8.96667e-05
9.03118e-05
9.1005e-05
9.17336e-05
9.24859e-05
9.32509e-05
9.40191e-05
9.47821e-05
9.5533e-05
9.62663e-05
9.69775e-05
9.76512e-05
9.82751e-05
9.88357e-05
9.93441e-05
9.98171e-05
0.000100274
0.000100734
0.000101215
0.000101731
0.000102292
0.000102905
0.000103573
0.000104296
0.000105072
0.000105895
8.91478e-05
8.84749e-05
8.8003e-05
8.77233e-05
8.76176e-05
8.76682e-05
8.78582e-05
8.8171e-05
8.85904e-05
8.9101e-05
8.96878e-05
9.03364e-05
9.10332e-05
9.17653e-05
9.25207e-05
9.32884e-05
9.40588e-05
9.48232e-05
9.55746e-05
9.63076e-05
9.70175e-05
9.76895e-05
9.8313e-05
9.88735e-05
9.93818e-05
9.98539e-05
0.000100309
0.000100765
0.00010124
0.000101748
0.000102299
0.0001029
0.000103555
0.000104264
0.000105025
0.000105832
8.91509e-05
8.84857e-05
8.80139e-05
8.77345e-05
8.76296e-05
8.76816e-05
8.78737e-05
8.81893e-05
8.86123e-05
8.91272e-05
8.97188e-05
9.03727e-05
9.1075e-05
9.18126e-05
9.25732e-05
9.33458e-05
9.41202e-05
9.4888e-05
9.56419e-05
9.63765e-05
9.70864e-05
9.77576e-05
9.83795e-05
9.89393e-05
9.94475e-05
9.99197e-05
0.000100374
0.000100829
0.000101301
0.000101804
0.000102348
0.00010294
0.000103584
0.00010428
0.000105027
0.00010582
8.91547e-05
8.8499e-05
8.80272e-05
8.77484e-05
8.76444e-05
8.76982e-05
8.78929e-05
8.82121e-05
8.86397e-05
8.916e-05
8.97578e-05
9.04184e-05
9.11276e-05
9.18721e-05
9.26393e-05
9.34179e-05
9.41975e-05
9.49694e-05
9.57262e-05
9.64626e-05
9.71723e-05
9.78424e-05
9.84627e-05
9.90222e-05
9.95309e-05
0.000100004
0.000100458
0.000100911
0.000101379
0.000101875
0.00010241
0.00010299
0.000103619
0.000104299
0.000105026
0.0001058
8.9159e-05
8.85138e-05
8.80422e-05
8.77639e-05
8.76612e-05
8.7717e-05
8.79148e-05
8.82382e-05
8.86711e-05
8.91978e-05
8.98028e-05
9.04711e-05
9.11885e-05
9.19411e-05
9.27163e-05
9.35021e-05
9.42882e-05
9.50654e-05
9.58263e-05
9.65662e-05
9.72772e-05
9.79475e-05
9.85665e-05
9.91262e-05
9.96364e-05
0.000100111
0.000100567
0.00010102
0.000101487
0.000101978
0.000102505
0.000103075
0.000103691
0.000104355
0.000105066
0.000105821
8.91634e-05
8.85294e-05
8.8058e-05
8.77804e-05
8.76791e-05
8.77373e-05
8.79385e-05
8.82665e-05
8.87053e-05
8.92389e-05
8.98518e-05
9.05288e-05
9.12551e-05
9.20167e-05
9.28004e-05
9.35942e-05
9.43873e-05
9.51703e-05
9.59357e-05
9.66799e-05
9.73924e-05
9.80633e-05
9.86815e-05
9.92421e-05
9.97543e-05
0.000100232
0.000100689
0.000101143
0.000101607
0.000102094
0.000102613
0.000103171
0.000103772
0.000104419
0.000105109
0.000105844
8.91678e-05
8.8545e-05
8.80885e-05
8.78113e-05
8.7711e-05
8.77712e-05
8.79756e-05
8.83081e-05
8.87525e-05
8.9293e-05
8.99137e-05
9.05993e-05
9.13346e-05
9.21052e-05
9.28978e-05
9.36997e-05
9.44999e-05
9.52889e-05
9.60592e-05
9.6808e-05
9.75225e-05
9.81944e-05
9.88116e-05
9.93729e-05
9.98874e-05
0.000100367
0.000100828
0.000101283
0.000101746
0.000102229
0.000102742
0.00010329
0.000103879
0.000104511
0.000105184
0.000105901
8.91721e-05
8.856e-05
8.81225e-05
8.78456e-05
8.77466e-05
8.78089e-05
8.80166e-05
8.83535e-05
8.88037e-05
8.93511e-05
8.99797e-05
9.06739e-05
9.14183e-05
9.2198e-05
9.29993e-05
9.38094e-05
9.46168e-05
9.54119e-05
9.61905e-05
9.69447e-05
9.76623e-05
9.83365e-05
9.89541e-05
9.95174e-05
0.000100035
0.000100519
0.000100982
0.000101438
0.000101901
0.00010238
0.000102886
0.000103424
0.000104
0.000104615
0.00010527
0.000105967
8.9176e-05
8.8574e-05
8.81543e-05
8.78938e-05
8.77956e-05
8.78596e-05
8.807e-05
8.8411e-05
8.88664e-05
8.94202e-05
9.00562e-05
9.07585e-05
9.15114e-05
9.22998e-05
9.31095e-05
9.39273e-05
9.47417e-05
9.55439e-05
9.63325e-05
9.70927e-05
9.78142e-05
9.84897e-05
9.9108e-05
9.96735e-05
0.000100195
0.000100682
0.000101149
0.000101608
0.000102071
0.000102549
0.000103051
0.000103582
0.000104147
0.00010475
0.00010539
0.000106071
8.91795e-05
8.85867e-05
8.81831e-05
8.79467e-05
8.7856e-05
8.79215e-05
8.81344e-05
8.84789e-05
8.8939e-05
8.94986e-05
9.01414e-05
9.08511e-05
9.16118e-05
9.24081e-05
9.32254e-05
9.40503e-05
9.48712e-05
9.56873e-05
9.64848e-05
9.72507e-05
9.79762e-05
9.86521e-05
9.92719e-05
9.98402e-05
0.000100365
0.000100856
0.000101327
0.000101787
0.00010225
0.000102725
0.000103221
0.000103743
0.000104297
0.000104885
0.000105508
0.000106172
8.91826e-05
8.85979e-05
8.82086e-05
8.79936e-05
8.79314e-05
8.80043e-05
8.82188e-05
8.85661e-05
8.903e-05
8.95944e-05
9.02428e-05
9.09589e-05
9.17264e-05
9.25296e-05
9.33538e-05
9.41862e-05
9.5026e-05
9.5857e-05
9.66648e-05
9.74381e-05
9.81693e-05
9.88465e-05
9.94687e-05
0.00010004
0.000100569
0.000101065
0.00010154
0.000102004
0.000102469
0.000102943
0.000103436
0.000103954
0.000104501
0.00010508
0.000105692
0.000106343
8.91853e-05
8.86073e-05
8.82303e-05
8.80336e-05
8.79959e-05
8.8099e-05
8.8328e-05
8.86769e-05
8.91436e-05
8.97116e-05
9.03645e-05
9.10856e-05
9.18587e-05
9.26677e-05
9.35022e-05
9.43546e-05
9.52089e-05
9.60502e-05
9.68651e-05
9.76435e-05
9.83772e-05
9.90556e-05
9.96797e-05
0.000100254
0.000100785
0.000101284
0.00010176
0.000102224
0.000102686
0.000103157
0.000103643
0.000104151
0.000104685
0.00010525
0.000105847
0.000106481
8.91875e-05
8.86153e-05
8.82487e-05
8.80676e-05
8.80511e-05
8.81808e-05
8.8441e-05
8.88185e-05
8.93015e-05
8.98786e-05
9.05386e-05
9.12696e-05
9.20584e-05
9.28909e-05
9.37518e-05
9.46253e-05
9.5496e-05
9.63496e-05
9.71738e-05
9.79594e-05
9.86945e-05
9.93746e-05
0.000100001
0.000100577
0.000101112
0.000101614
0.000102093
0.00010256
0.000103025
0.000103496
0.000103982
0.000104488
0.000105019
0.000105579
0.00010617
0.000106798
8.91893e-05
8.86215e-05
8.82628e-05
8.80933e-05
8.80921e-05
8.82405e-05
8.85224e-05
8.89236e-05
8.94311e-05
9.00325e-05
9.07155e-05
9.14674e-05
9.22745e-05
9.31223e-05
9.39958e-05
9.48794e-05
9.57581e-05
9.66182e-05
9.7448e-05
9.82393e-05
9.89793e-05
9.96655e-05
0.000100299