/*--------------------------------*- C++ -*----------------------------------*\
  =========                 |
  \\      /  F ield         | OpenFOAM: The Open Source CFD Toolbox
   \\    /   O peration     | Website:  https://openfoam.org
    \\  /    A nd           | Version:  10
     \\/     M anipulation  |
\*---------------------------------------------------------------------------*/
FoamFile
{
    format      ascii;
    class       volScalarField;
    location    "68";
    object      p;
}
// * * * * * * * * * * * * * * * * * * * * * * * * * * * * * * * * * * * * * //

dimensions      [0 2 -2 0 0 0 0];

internalField   nonuniform List<scalar> 
127913
(
0.0197452
0.0190658
0.0185491
0.0180522
0.0174418
0.0167153
0.0159016
0.0150192
0.0140806
0.0130982
0.0120863
0.0110591
0.0100307
0.00901435
0.0080222
0.00706527
0.00615313
0.00529381
0.00449374
0.00375776
0.0030891
0.00248948
0.00195922
0.00149734
0.00110176
0.000769382
0.000496257
0.000277703
0.000108415
-1.74614e-05
-0.000106311
-0.000165123
-0.000201712
-0.000225565
-0.000245793
-0.000334177
0.0201469
0.0194877
0.0188774
0.0183011
0.0176458
0.0168914
0.0160561
0.0151559
0.0142021
0.0132066
0.0121829
0.0111452
0.0101072
0.00908223
0.00808238
0.00711864
0.00620057
0.00533615
0.0045318
0.0037923
0.00312083
0.00251905
0.00198721
0.00152426
0.00112805
0.000795408
0.000522343
0.000304129
0.00013544
1.04328e-05
-7.72116e-05
-0.000134318
-0.000168343
-0.000188029
-0.000201295
-0.000269067
0.0198038
0.0192597
0.0187161
0.0181678
0.0175326
0.0167937
0.0159674
0.0150704
0.0141157
0.0131168
0.0120881
0.0110444
0.0100001
0.008969
0.00796358
0.00699508
0.00607326
0.00520622
0.00440038
0.00366051
0.00298979
0.00238985
0.00186087
0.00140172
0.00101014
0.000682886
0.000415862
0.00020428
4.27733e-05
-7.44885e-05
-0.000153726
-0.000201506
-0.000224728
-0.000230923
-0.000225701
-0.000258628
0.0197909
0.0193516
0.0188816
0.0183542
0.0177171
0.0169687
0.0161279
0.0152124
0.0142369
0.0132164
0.012166
0.0111015
0.0100376
0.00898837
0.00796674
0.0069841
0.00605029
0.00517347
0.00436004
0.00361467
0.0029404
0.00233873
0.00180972
0.00135205
0.000963284
0.000639983
0.000377893
0.000172083
1.70767e-05
-9.30255e-05
-0.000164463
-0.000203782
-0.000217881
-0.000214535
-0.000200846
-0.000228492
0.0198645
0.0194381
0.0189775
0.0184432
0.0177905
0.0170244
0.0161645
0.0152281
0.0142307
0.0131877
0.0121152
0.0110293
0.0099454
0.00887801
0.0078403
0.00684399
0.00589908
0.00501379
0.00419454
0.00344596
0.00277095
0.00217078
0.0016452
0.00119271
0.000810665
0.000495416
0.000242498
4.67911e-05
-9.73389e-05
-0.000195916
-0.000255266
-0.000281982
-0.000282967
-0.000265926
-0.000237562
-0.000248189
0.0200205
0.0196019
0.0191527
0.0186224
0.0179642
0.0171857
0.0163081
0.0153497
0.014327
0.0132571
0.0121572
0.0110443
0.0099347
0.00884345
0.00778429
0.0067694
0.00580904
0.00491153
0.00408327
0.00332877
0.00265075
0.00205028
0.00152683
0.00107861
0.00070269
0.000395177
0.000151337
-3.42e-05
-0.00016729
-0.000254153
-0.000301291
-0.000315483
-0.000303897
-0.000274761
-0.000236031
-0.000241352
0.0202367
0.0198179
0.0193657
0.0188252
0.0181483
0.0173444
0.0164368
0.0154454
0.014388
0.0132827
0.0121479
0.0110016
0.00986088
0.0087415
0.00765742
0.00662103
0.005643
0.00473178
0.00389371
0.00313313
0.00245255
0.00185275
0.00133295
0.000890927
0.000523371
0.000226048
-6.09109e-06
-0.000178725
-0.00029799
-0.000370354
-0.000402539
-0.000401513
-0.000374597
-0.000330071
-0.000275487
-0.000263876
0.0205019
0.0200805
0.019621
0.0190667
0.0183694
0.0175394
0.0166014
0.0155764
0.0144833
0.0133413
0.0121701
0.0109888
0.00981529
0.00866607
0.00755578
0.00649697
0.00550022
0.00457434
0.00372584
0.00295891
0.00227576
0.00167685
0.00116103
0.00072571
0.000367124
8.06642e-05
-0.000139066
-0.000298079
-0.00040282
-0.000460035
-0.000476697
-0.00046001
-0.000417549
-0.000357951
-0.000289418
-0.000267328
0.020805
0.0203793
0.0199084
0.0193357
0.018613
0.0177517
0.0167776
0.0157129
0.014578
0.0133936
0.0121805
0.0109591
0.0097481
0.0085649
0.0074247
0.00634054
0.00532292
0.00438043
0.00351986
0.00274543
0.00205904
0.00146073
0.000948958
0.000520735
0.000171832
-0.000102838
-0.000309071
-0.000453258
-0.000542194
-0.000582942
-0.000582746
-0.000549043
-0.000489574
-0.000413039
-0.000327322
-0.00028781
0.0211348
0.0207039
0.0202196
0.0196256
0.0188751
0.0179802
0.0169679
0.0158616
0.0146834
0.0134551
0.0121991
0.0109366
0.00968754
0.00846989
0.00729949
0.00618978
0.00515162
0.00419314
0.00332086
0.00253936
0.00185035
0.00125341
0.000746519
0.000326246
-1.21176e-05
-0.000274162
-0.000466115
-0.000594759
-0.000667253
-0.00069098
-0.000673467
-0.000622389
-0.000545704
-0.000452339
-0.000350484
-0.000297225
0.0214795
0.021043
0.020544
0.0199273
0.0191472
0.0182169
0.0171644
0.0160147
0.0147911
0.0135173
0.0122166
0.0109115
0.00962287
0.00836938
0.00716747
0.00603101
0.0049711
0.00399596
0.00311154
0.00232225
0.00163
0.00103399
0.000531654
0.000119088
-0.000208887
-0.000458364
-0.000636035
-0.000749098
-0.00080509
-0.00081173
-0.00077683
-0.000708296
-0.000614256
-0.000503713
-0.000384686
-0.000314739
0.0218268
0.0213845
0.0208704
0.0202304
0.0194203
0.0184543
0.0173615
0.0161684
0.0148999
0.0135809
0.0122363
0.0108894
0.00956202
0.00827357
0.00704101
0.00587859
0.00479765
0.00380663
0.00291088
0.00211436
0.00141928
0.000824561
0.000327104
-7.75146e-05
-0.000394941
-0.000631756
-0.000795137
-0.000892696
-0.000932341
-0.000922116
-0.000870114
-0.000784473
-0.000673503
-0.000546362
-0.000411183
-0.00032672
0.0221631
0.0217152
0.0211865
0.0205239
0.0196847
0.0186841
0.0175522
0.0163173
0.0150055
0.0136432
0.0122564
0.0108696
0.00950517
0.00818329
0.00692139
0.00573405
0.00463286
0.00362633
0.00271978
0.00191654
0.00121853
0.000624788
0.000131779
-0.000265456
-0.000573033
-0.000797982
-0.000947948
-0.00103095
-0.00105526
-0.00102923
-0.000961218
-0.000859586
-0.000732795
-0.000590096
-0.000439564
-0.00034061
0.022475
0.0220219
0.0214796
0.0207961
0.0199299
0.0188972
0.0177293
0.0164557
0.0151041
0.0137022
0.0122769
0.0108537
0.00945565
0.00810336
0.00681472
0.00560463
0.00448487
0.00346408
0.00254765
0.00173824
0.0010374
0.000444407
-4.46362e-05
-0.000435208
-0.00073387
-0.000948048
-0.0010858
-0.00115552
-0.00116583
-0.00112536
-0.00104274
-0.000926496
-0.000785264
-0.000628395
-0.000463982
-0.000352163
0.0227487
0.0222911
0.0217371
0.0210354
0.0201456
0.0190848
0.0178855
0.0165783
0.0151921
0.0137559
0.0122974
0.0108429
0.00941595
0.00803759
0.00672602
0.00549639
0.00436066
0.00332759
0.00240268
0.00158803
0.000884771
0.000292403
-0.000193266
-0.000578161
-0.000869237
-0.00107425
-0.00120159
-0.00126002
-0.00125844
-0.00120576
-0.00111078
-0.000982237
-0.000828869
-0.000660119
-0.000484108
-0.000361563
0.0229717
0.0225106
0.0219472
0.0212308
0.020322
0.0192386
0.018014
0.0166797
0.0152658
0.013802
0.0123171
0.0108375
0.00938751
0.00798827
0.00665823
0.00541271
0.00426382
0.00322042
0.00228809
0.00146879
0.000763246
0.00017082
-0.000312691
-0.000693514
-0.000978915
-0.00117694
-0.00129622
-0.00134579
-0.0013348
-0.00127238
-0.00116751
-0.00102906
-0.000865879
-0.000687471
-0.000501931
-0.000370277
0.0231333
0.0226698
0.0220997
0.021373
0.0204508
0.0193515
0.018109
0.0167556
0.0153222
0.0138392
0.0123359
0.0108391
0.00937333
0.00795988
0.00661728
0.00536092
0.00420301
0.00315249
0.00221499
0.00139253
0.000685406
9.27512e-05
-0.000389481
-0.000767698
-0.00104938
-0.0012428
-0.00135677
-0.00140047
-0.00138324
-0.00131432
-0.00120286
-0.0010578
-0.000888089
-0.000703292
-0.000511583
-0.000374392
0.0232256
0.0227608
0.0221872
0.021455
0.0205257
0.0194179
0.018166
0.0168024
0.0153587
0.0138655
0.0123524
0.0108466
0.00937246
0.00795144
0.00660202
0.00533957
0.00417635
0.00312137
0.00218032
0.00135527
0.000646359
5.26386e-05
-0.00042982
-0.000807485
-0.00108795
-0.00127957
-0.00139126
-0.00143231
-0.00141211
-0.00134
-0.00122516
-0.00107664
-0.000903412
-0.000715062
-0.000519701
-0.000378805
0.0232441
0.0227792
0.0222056
0.0214732
0.0205437
0.0194356
0.0181832
0.0168192
0.0153749
0.0138814
0.012368
0.0108621
0.00938793
0.00796694
0.00661745
0.00535475
0.00419103
0.00313537
0.00219352
0.00136763
0.000657753
6.28891e-05
-0.000420712
-0.00079947
-0.00108095
-0.00127351
-0.00138605
-0.00142784
-0.00140826
-0.00133667
-0.00122225
-0.00107405
-0.000901059
-0.000712912
-0.000517783
-0.000377537
0.0231884
0.0227248
0.0221545
0.0214273
0.0205044
0.0194041
0.0181605
0.0168058
0.015371
0.0138868
0.0123824
0.0108849
0.00941856
0.00800447
0.00666078
0.00540265
0.0042422
0.0031885
0.00224739
0.00142115
0.000709982
0.000113033
-0.000373332
-0.000755386
-0.00104055
-0.00123705
-0.00135368
-0.0013996
-0.00138412
-0.00131651
-0.00120592
-0.00106137
-0.000891829
-0.000706896
-0.000514668
-0.000376803
0.0230619
0.0226008
0.0220369
0.0213199
0.02041
0.0193253
0.018099
0.0167627
0.0153467
0.0138811
0.0123946
0.0109141
0.00946334
0.00806323
0.00673166
0.00548357
0.00433097
0.00328289
0.00234519
0.0015203
0.000808668
0.000209691
-0.000280113
-0.000666802
-0.000957552
-0.00116036
-0.00128382
-0.00133689
-0.00132873
-0.00126846
-0.00116515
-0.00102771
-0.000865085
-0.000686872
-0.000501268
-0.000369991
0.0228718
0.0224142
0.0218597
0.0211571
0.020266
0.0192035
0.018002
0.0166923
0.0153034
0.0138646
0.012404
0.0109478
0.00951934
0.00813919
0.0068249
0.00559118
0.00444988
0.00340997
0.00247736
0.00165458
0.000942568
0.000341021
-0.000153444
-0.000546531
-0.000845068
-0.00105674
-0.00118982
-0.00125302
-0.00125525
-0.00120545
-0.00111252
-0.000985255
-0.000832507
-0.000663808
-0.000487284
-0.000364052
0.0226282
0.0221749
0.0216321
0.0209476
0.0200799
0.0190452
0.0178748
0.0165983
0.0152436
0.0138386
0.0124107
0.0109852
0.00958504
0.00823024
0.00693804
0.00572286
0.00459639
0.0035675
0.00264212
0.00182296
0.00111146
0.000507656
8.26549e-06
-0.000392005
-0.000699553
-0.000921663
-0.00106626
-0.00114172
-0.00115665
-0.00111976
-0.00103973
-0.000925222
-0.000784979
-0.000628503
-0.000464042
-0.000352442
0.022343
0.0218949
0.0213656
0.0207019
0.0198611
0.0188582
0.0177237
0.0164855
0.0151702
0.0138044
0.0124144
0.0110247
0.00965731
0.00833191
0.0070653
0.00587162
0.00476234
0.00374626
0.00282928
0.00201446
0.0013038
0.000697459
0.000192386
-0.000216212
-0.000534232
-0.000768508
-0.000926551
-0.00101635
-0.00104617
-0.00102444
-0.000959609
-0.000860135
-0.000734621
-0.000592464
-0.000441828
-0.000342596
0.0220298
0.0215873
0.0210726
0.0204314
0.0196196
0.0186513
0.0175556
0.0163591
0.0150869
0.0137642
0.0124158
0.0110654
0.00973428
0.00844142
0.00720323
0.00603355
0.00494364
0.00394217
0.00303498
0.00222579
0.00151702
0.000908692
0.000398137
-1.88688e-05
-0.000347708
-0.000594731
-0.000767003
-0.000872102
-0.000917941
-0.000912616
-0.000864312
-0.000781293
-0.000672019
-0.000545833
-0.00041106
-0.000327111
0.0217022
0.0212654
0.0207657
0.0201477
0.0193659
0.0184332
0.0173778
0.0162247
0.0149973
0.0137195
0.0124147
0.0111055
0.00981235
0.00855358
0.00734514
0.00620055
0.00513086
0.00414461
0.00324765
0.00244436
0.00173752
0.00112697
0.00061053
0.000184543
-0.000155844
-0.000416469
-0.000603932
-0.000725382
-0.000788348
-0.000800592
-0.000770015
-0.000704653
-0.000612786
-0.0005036
-0.000385267
-0.000315846
0.0213736
0.0209425
0.0204575
0.0198623
0.01911
0.0182128
0.0171975
0.0160879
0.0149057
0.0136734
0.012413
0.0111459
0.00989169
0.00866806
0.00749042
0.00637194
0.00532344
0.00435327
0.00346772
0.00267162
0.00196755
0.00135558
0.000834002
0.000399689
4.82987e-05
-0.000225509
-0.000427869
-0.000565506
-0.000645562
-0.000675458
-0.000662806
-0.000615413
-0.000541399
-0.00044989
-0.000349287
-0.000297246
0.021057
0.020631
0.0201595
0.0195855
0.0188611
0.0179975
0.0170206
0.0159526
0.0148139
0.0136253
0.0124076
0.0111811
0.00996454
0.00877476
0.00762674
0.00653331
0.00550502
0.00455019
0.0036756
0.00288622
0.00218445
0.00157068
0.00104371
0.000600903
0.000238415
-4.86172e-05
-0.000265886
-0.000419703
-0.000516838
-0.000564379
-0.000569652
-0.000540218
-0.000483982
-0.000409836
-0.000325858
-0.000287893
0.0207644
0.0203428
0.0198825
0.0193271
0.0186282
0.017796
0.0168552
0.015827
0.0147301
0.013584
0.0124081
0.0112215
0.0100419
0.00888572
0.00776721
0.00669885
0.00569093
0.00475213
0.00388943
0.00310746
0.00240878
0.00179419
0.00126288
0.000812644
0.00044012
0.00014088
-9.03474e-05
-0.000259479
-0.000372923
-0.000437446
-0.000460095
-0.000448198
-0.000409494
-0.000352819
-0.000286593
-0.000266657
0.0205073
0.0200883
0.0196355
0.0190939
0.0184154
0.0176094
0.0166992
0.0157047
0.0146437
0.0135342
0.0123946
0.0112429
0.0100959
0.00896917
0.00787663
0.00683027
0.00584054
0.00491621
0.00406389
0.00328822
0.002592
0.00197637
0.00144089
0.00098375
0.00060197
0.000291503
4.74495e-05
-0.000135762
-0.000264221
-0.000344406
-0.000383108
-0.000387411
-0.000364795
-0.000323733
-0.000271986
-0.000262973
0.0202974
0.0198786
0.0194288
0.0188975
0.0182378
0.0174574
0.0165773
0.0156159
0.0145897
0.0135156
0.0124109
0.0112925
0.0101765
0.00907773
0.00800974
0.00698448
0.00601231
0.00510168
0.00425917
0.00348956
0.00279587
0.00217947
0.00164025
0.0011768
0.000786473
0.000465556
0.000209491
1.30232e-05
-0.000129648
-0.00022475
-0.000278846
-0.000298827
-0.000292016
-0.000266833
-0.000231453
-0.000239889
0.0201461
0.0197195
0.0192584
0.0187232
0.0180691
0.0173011
0.0164389
0.0154997
0.0144988
0.0134517
0.0123744
0.0112829
0.0101924
0.00911718
0.0080704
0.00706362
0.00610686
0.00520844
0.00437497
0.00361133
0.00292066
0.00230458
0.00176322
0.00129543
0.000898817
0.000569949
0.000304541
9.75926e-05
-5.64704e-05
-0.000163671
-0.000230392
-0.000263331
-0.000269543
-0.000256915
-0.00023236
-0.000246493
0.0200758
0.0196365
0.019166
0.0186376
0.0179992
0.0172492
0.0164062
0.0154879
0.0145091
0.0134845
0.0124294
0.0113591
0.0102885
0.00923142
0.00820061
0.00720743
0.00626174
0.00537178
0.00454414
0.0037837
0.00309382
0.00247632
0.00193157
0.00145857
0.00105515
0.000718107
0.000443356
0.000226091
6.09018e-05
-5.81078e-05
-0.000137228
-0.000183108
-0.000202791
-0.000204238
-0.000194767
-0.000226358
0.0200911
0.0195469
0.0190029
0.0184537
0.0178173
0.0170767
0.0162483
0.0153486
0.0143907
0.0133878
0.0123543
0.0113049
0.0102539
0.00921478
0.00820011
0.00722103
0.00628731
0.00540715
0.00458714
0.00383226
0.00314597
0.00253022
0.0019855
0.00151098
0.00110467
0.000763545
0.000483706
0.000260482
8.85744e-05
-3.78409e-05
-0.000125031
-0.000179663
-0.000208777
-0.000220083
-0.000219396
-0.00025655
0.0204357
0.0197764
0.0191656
0.0185885
0.0179322
0.0171761
0.0163388
0.015436
0.014479
0.0134795
0.0124511
0.0114076
0.0103629
0.00932988
0.00832075
0.00734643
0.00641647
0.00553899
0.00472054
0.00396611
0.00327916
0.00266164
0.0021141
0.0016358
0.00122485
0.000878318
0.000592377
0.000362434
0.000183229
4.893e-05
-4.68283e-05
-0.000110967
-0.000151085
-0.000176109
-0.000194185
-0.000266572
0.0200347
0.0193552
0.0188381
0.0183404
0.0177289
0.0170008
0.0161851
0.0153002
0.0143583
0.013372
0.0123553
0.0113224
0.0102872
0.00926278
0.00826132
0.00729377
0.00636973
0.00549733
0.00468315
0.00393223
0.00324807
0.00263269
0.00208671
0.00160946
0.0011991
0.000852779
0.000566716
0.000336359
0.000156473
2.1215e-05
-7.58436e-05
-0.000141788
-0.000184571
-0.000213858
-0.000238968
-0.00033194
0.0201627
0.0195032
0.0188922
0.018315
0.0176587
0.0169029
0.0160661
0.0151641
0.0142085
0.013211
0.0121854
0.0111457
0.010106
0.00907931
0.00807794
0.00711287
0.00619365
0.00532828
0.00452316
0.00378309
0.00311126
0.00250934
0.00197754
0.00151483
0.001119
0.000786877
0.000514434
0.000296929
0.000129014
4.82987e-06
-8.19594e-05
-0.000138193
-0.000171342
-0.000190172
-0.000202636
-0.000269949
0.0205652
0.0199266
0.019222
0.0185649
0.0178634
0.0170793
0.0162206
0.0153005
0.0143295
0.0133186
0.0122811
0.0112307
0.0101813
0.00914592
0.00813676
0.00716481
0.0062396
0.00536909
0.00455964
0.00381603
0.00314139
0.00253732
0.00200399
0.00154029
0.00114394
0.000811716
0.000539524
0.000322581
0.000155522
3.2496e-05
-5.27568e-05
-0.000106878
-0.000136883
-0.000150398
-0.000153073
-0.000183192
0.0202263
0.0197032
0.0190649
0.0184353
0.0177533
0.0169845
0.0161344
0.0152169
0.0142446
0.0132298
0.0121867
0.0111299
0.0100736
0.00903167
0.00801654
0.0070395
0.00611027
0.00523691
0.00442582
0.0036817
0.00300769
0.00240535
0.00187481
0.00141485
0.0010231
0.000696241
0.000430089
0.000219793
5.99502e-05
-5.52724e-05
-0.000132023
-0.000176651
-0.000195518
-0.000194757
-0.000177162
-0.000165067
0.0202197
0.0198019
0.0192376
0.0186289
0.0179448
0.0171659
0.0163006
0.0153638
0.0143697
0.0133324
0.0122668
0.0111883
0.0101117
0.00905104
0.00801922
0.00702765
0.00608617
0.00520287
0.0043841
0.00363448
0.00295698
0.00235302
0.00182259
0.00136431
0.00097562
0.000652979
0.000392044
0.000187811
3.47588e-05
-7.30162e-05
-0.00014168
-0.00017755
-0.000186962
-0.000176256
-0.000149808
-0.000132182
0.0203015
0.0198962
0.0193407
0.0187242
0.0180233
0.0172253
0.0163396
0.0153807
0.0143633
0.0133022
0.0122133
0.0111123
0.0100148
0.00893514
0.00788665
0.00688098
0.00592812
0.00503622
0.00421161
0.00345883
0.00278073
0.00217852
0.00165187
0.00119913
0.000817543
0.000503351
0.000251994
5.82712e-05
-8.35022e-05
-0.000179358
-0.000235547
-0.000258432
-0.000254348
-0.000229552
-0.000188
-0.00015335
0.020468
0.0200703
0.0195258
0.0189127
0.0182054
0.0173941
0.0164895
0.0155074
0.0144636
0.0133742
0.0122563
0.0111269
0.0100023
0.0088979
0.00782739
0.00680276
0.00583418
0.00492992
0.00409632
0.00333773
0.0026568
0.00205451
0.0015303
0.00108219
0.000707137
0.000401113
0.000159284
-2.38116e-05
-0.000154094
-0.000237796
-0.000281354
-0.000291317
-0.000274287
-0.000237068
-0.000184971
-0.000145198
0.0206969
0.0202987
0.0197505
0.019126
0.0183988
0.0175606
0.0166244
0.0156073
0.0145265
0.0133996
0.0122448
0.0110801
0.00992274
0.00878858
0.00769203
0.00664546
0.00565905
0.00474105
0.00389771
0.00313324
0.00245
0.00184871
0.00132851
0.000887092
0.000520953
0.000225695
-3.84301e-06
-0.000173444
-0.000289318
-0.000357958
-0.000386024
-0.000380256
-0.000347415
-0.000294356
-0.000225946
-0.000168973
0.020977
0.0205759
0.0200194
0.0193801
0.0186311
0.0177653
0.0167967
0.0157437
0.0146249
0.0134592
0.012266
0.0110645
0.00987264
0.00870719
0.00758297
0.00651292
0.00550766
0.0045753
0.00372187
0.00295144
0.00226608
0.00166616
0.00115048
0.00071636
0.00035985
7.61318e-05
-0.000140315
-0.000295618
-0.000396311
-0.000449173
-0.000461122
-0.000439142
-0.000390248
-0.000321672
-0.000238989
-0.000171532
0.0212969
0.0208911
0.0203224
0.0196633
0.0188874
0.0179881
0.0169807
0.0158855
0.0147222
0.0135115
0.012274
0.0110301
0.00979897
0.00859789
0.00744233
0.00634553
0.00531854
0.00436971
0.00350473
0.00272731
0.00203922
0.00144045
0.000929401
0.000502997
0.000156861
-0.000114316
-0.000316505
-0.000456227
-0.00054038
-0.00057607
-0.000570496
-0.000530877
-0.0004644
-0.000378361
-0.000277991
-0.000192841
0.0216453
0.0212339
0.0206508
0.0199692
0.0191635
0.018228
0.0171795
0.0160398
0.0148302
0.0135729
0.01229
0.0110029
0.00973167
0.00849453
0.00730743
0.00618397
0.00513524
0.00417004
0.00329407
0.00251042
0.00182049
0.00122383
0.000718411
0.00030074
-3.40227e-05
-0.000291687
-0.000478713
-0.000602028
-0.000668903
-0.000686779
-0.000663143
-0.000605462
-0.000521143
-0.000417723
-0.000300778
-0.000201806
0.0220101
0.0215926
0.0209939
0.0202879
0.0194502
0.0184765
0.0173848
0.0161984
0.0149404
0.0136345
0.0123042
0.0109721
0.00965928
0.00838457
0.00716459
0.00601328
0.00494189
0.00395921
0.00307121
0.00228076
0.00158855
0.000993657
0.000493604
8.44756e-05
-0.000239039
-0.000483237
-0.000655072
-0.000761914
-0.000811429
-0.000811402
-0.000769616
-0.000693775
-0.00059146
-0.000470292
-0.000335667
-0.000219803
0.0223782
0.0219546
0.0213398
0.0206087
0.0197386
0.0187261
0.0175908
0.0163576
0.0150513
0.0136973
0.0123202
0.010944
0.00959034
0.00827897
0.00702699
0.00584868
0.00475547
0.00375599
0.00285652
0.00205986
0.00136595
0.000773337
0.000279069
-0.000121187
-0.000433213
-0.000663782
-0.000820333
-0.000910699
-0.00094293
-0.00092515
-0.000865428
-0.000771709
-0.000651765
-0.000513387
-0.000362114
-0.000231641
0.0227357
0.022306
0.0216755
0.0209199
0.020018
0.0189678
0.0177901
0.0165116
0.0151587
0.0137583
0.0123365
0.0109179
0.00952525
0.00817882
0.0068962
0.005692
0.00457784
0.00356234
0.00265163
0.00184866
0.00115307
0.00056258
7.37337e-05
-0.000318196
-0.000619435
-0.000837193
-0.000979371
-0.00105425
-0.00107026
-0.00103584
-0.00095934
-0.000848917
-0.000712507
-0.000558003
-0.000390893
-0.00024579
0.0230678
0.0226325
0.0219874
0.021209
0.0202775
0.0191922
0.0179753
0.0166547
0.0152589
0.0138159
0.0123531
0.0108959
0.00946775
0.00808936
0.00677875
0.00555086
0.00441743
0.00338716
0.00246599
0.00165709
0.000959876
0.000371279
-0.000112638
-0.00049699
-0.000788375
-0.000994414
-0.00112341
-0.00118407
-0.00118516
-0.00113544
-0.0010435
-0.000917711
-0.000766169
-0.00059689
-0.000415402
-0.000257348
0.0233598
0.0229198
0.0222619
0.0214636
0.0205061
0.01939
0.0181386
0.0167813
0.0153481
0.0138682
0.01237
0.0108796
0.00942103
0.00801532
0.00668079
0.0054326
0.00428266
0.00323972
0.00230959
0.00149559
0.000797023
0.000210121
-0.000269527
-0.000647402
-0.000930398
-0.00112648
-0.00124431
-0.0012929
-0.00128138
-0.00121875
-0.00111383
-0.000975146
-0.000810939
-0.000629316
-0.000435832
-0.000266948
0.0235981
0.0231542
0.0224862
0.0216717
0.0206932
0.0195521
0.0182728
0.0168859
0.0154224
0.0139129
0.0123863
0.0108695
0.00938651
0.00795884
0.00660492
0.00534009
0.0041764
0.00312274
0.0021849
0.00136616
0.000665813
7.97718e-05
-0.000396887
-0.000769943
-0.00104652
-0.00123485
-0.00134388
-0.00138288
-0.00136122
-0.00128814
-0.00117266
-0.00102346
-0.000848887
-0.000657126
-0.000453723
-0.000275689
0.0237708
0.0233243
0.022649
0.0218231
0.0208298
0.019671
0.0183718
0.0169639
0.0154793
0.0139491
0.012403
0.010868
0.00936856
0.00792616
0.00655926
0.00528324
0.00411026
0.00304929
0.00210616
0.001284
0.000582237
-3.32056e-06
-0.000478083
-0.000848076
-0.00112053
-0.00130385
-0.00140717
-0.00143994
-0.00141169
-0.00133179
-0.00120938
-0.00105326
-0.000871872
-0.00067347
-0.000463666
-0.000279985
0.0238691
0.0234211
0.0227421
0.0219101
0.0209089
0.0197407
0.0184309
0.0170118
0.0155157
0.0139744
0.0124178
0.0108732
0.00936506
0.00791475
0.00654073
0.00525831
0.00407974
0.00301409
0.00206725
0.00124238
0.000538926
-4.73146e-05
-0.000521947
-0.000891084
-0.00116202
-0.00134323
-0.00144395
-0.00147373
-0.00144217
-0.00135875
-0.00123267
-0.00107281
-0.000887638
-0.000685456
-0.00047182
-0.000284397
0.0238881
0.0234401
0.0227609
0.0219288
0.0209273
0.0197587
0.0184485
0.0170287
0.0155321
0.0139904
0.0124335
0.010889
0.00938101
0.00793102
0.00655718
0.00527468
0.00409572
0.00302941
0.00208172
0.00125578
0.000551192
-3.61396e-05
-0.000511904
-0.00088222
-0.00115429
-0.00133658
-0.00143827
-0.00146891
-0.00143809
-0.00135528
-0.0012297
-0.00107023
-0.000885357
-0.000683412
-0.000470019
-0.000283088
0.0238273
0.0233807
0.0227052
0.0218788
0.0208847
0.0197249
0.0184243
0.0170148
0.0155285
0.0139967
0.0124495
0.0109139
0.00941424
0.00797154
0.00660379
0.00532601
0.00415033
0.00308588
0.00213874
0.00131216
0.000605929
1.61464e-05
-0.000462695
-0.000836598
-0.00111263
-0.00129912
-0.00140514
-0.00144011
-0.00141356
-0.00133489
-0.00121328
-0.00105757
-0.000876232
-0.000677555
-0.000467085
-0.000282393
0.0236907
0.0232467
0.0225783
0.021763
0.0207835
0.0196409
0.0183595
0.0169702
0.0155044
0.0139927
0.0124647
0.0109471
0.00946406
0.00803621
0.00668129
0.00541409
0.00424658
0.00318789
0.00224411
0.00141867
0.000711506
0.000119045
-0.000363847
-0.00074295
-0.00102513
-0.00121849
-0.0013319
-0.00137457
-0.00135586
-0.00128502
-0.00117113
-0.00102294
-0.000848873
-0.000657205
-0.000453578
-0.000275384
0.023486
0.0230459
0.0223876
0.0215883
0.0206295
0.0195114
0.0182574
0.0168972
0.0154608
0.0139781
0.0124777
0.0109859
0.00952639
0.0081195
0.00678265
0.00553038
0.00437452
0.00332412
0.00238537
0.0015619
0.000853802
0.000257809
-0.000230634
-0.000616908
-0.00090759
-0.00111052
-0.00123424
-0.00128769
-0.00127999
-0.00122019
-0.0011172
-0.000979654
-0.000815872
-0.000634053
-0.000439749
-0.000269527
0.0232245
0.0227891
0.0221435
0.0213641
0.020431
0.0193435
0.0181237
0.0167998
0.0154004
0.0139541
0.0124885
0.0110294
0.00959977
0.00821954
0.00690582
0.00567291
0.00453243
0.00349335
0.00256192
0.00174201
0.00103381
0.000434481
-5.98958e-05
-0.000454265
-0.00075483
-0.00096907
-0.00110516
-0.0011717
-0.00117749
-0.00113135
-0.00104196
-0.000917806
-0.000767098
-0.000597993
-0.000416159
-0.000257613
0.0229194
0.0224895
0.0218584
0.0211017
0.0201981
0.0191455
0.0179648
0.0166826
0.0153259
0.0139217
0.0124966
0.0110753
0.00968019
0.00833076
0.00704374
0.00583315
0.00471045
0.00368453
0.00276173
0.00194601
0.00123776
0.000634692
0.000133559
-0.000270113
-0.000582113
-0.000809476
-0.000959951
-0.00104174
-0.00106329
-0.00103313
-0.000959683
-0.000851248
-0.00071589
-0.000561636
-0.000394045
-0.00024789
0.0225851
0.0221613
0.0215458
0.0208136
0.0199416
0.0189267
0.0177883
0.0165513
0.015241
0.0138829
0.0125022
0.0111225
0.00976556
0.00845023
0.00719288
0.00600725
0.00490463
0.00389383
0.00298137
0.00217107
0.00146353
0.0008573
0.000349686
-6.33271e-05
-0.000387093
-0.000628164
-0.000793826
-0.000891856
-0.000930322
-0.000917414
-0.000861302
-0.000770062
-0.000651616
-0.000513928
-0.000362712
-0.000231999
0.0222364
0.0218188
0.0212194
0.0205121
0.0196727
0.0186964
0.0176016
0.0164114
0.0151494
0.0138392
0.0125048
0.0111688
0.00985173
0.00857207
0.00734571
0.00618613
0.00510443
0.00410938
0.00320768
0.00240294
0.00169609
0.00108648
0.000571969
0.000149016
-0.000187276
-0.000442943
-0.000624785
-0.000740132
-0.000796655
-0.000802193
-0.000764629
-0.0006918
-0.000591445
-0.000471357
-0.000337064
-0.000220977
0.0218875
0.0214759
0.0208922
0.0202094
0.0194018
0.0184639
0.0174124
0.016269
0.0150554
0.0137938
0.0125065
0.0112149
0.00993877
0.00869587
0.00750162
0.0063692
0.00530954
0.0043315
0.0034415
0.00264318
0.00193809
0.00132614
0.000805655
0.000373561
2.54084e-05
-0.00024433
-0.000441971
-0.000574397
-0.000648875
-0.000672891
-0.000654029
-0.000599891
-0.000518053
-0.000416241
-0.000300225
-0.00020178
0.021552
0.0211459
0.0205766
0.0199163
0.0191387
0.018237
0.0172268
0.016128
0.0149608
0.0137457
0.0125037
0.0112549
0.0100183
0.00881076
0.00764738
0.00654101
0.00550248
0.00454058
0.00366147
0.00286897
0.00216527
0.0015507
0.00102405
0.000582658
0.00022255
-6.12978e-05
-0.000274735
-0.000424218
-0.000516623
-0.00055909
-0.000558908
-0.000523428
-0.000460006
-0.000376122
-0.000277184
-0.000192926
0.0212422
0.0208408
0.0202837
0.0196432
0.0188927
0.0180247
0.0170533
0.015997
0.0148744
0.0137044
0.0125065
0.0112998
0.0101021
0.00892966
0.00779709
0.00671695
0.0057
0.0047546
0.00388687
0.00310116
0.00239997
0.00178401
0.00125245
0.000803019
0.000432188
0.000135403
-9.27451e-05
-0.000258297
-0.000367752
-0.000427917
-0.00044579
-0.000428488
-0.000383193
-0.000317332
-0.000236682
-0.000170789
0.0209699
0.0205715
0.0200226
0.0193971
0.0186683
0.0178281
0.0168894
0.0158692
0.0147847
0.0136536
0.012494
0.0113239
0.0101603
0.00901881
0.00791344
0.00685658
0.00585847
0.0049273
0.00406951
0.00328967
0.00259047
0.00197296
0.0014367
0.000979769
0.000599046
0.000290365
4.87054e-05
-0.000131612
-0.000256751
-0.000333223
-0.000367759
-0.000367227
-0.000338547
-0.000288767
-0.000222942
-0.000168015
0.0207468
0.020349
0.0198039
0.0191898
0.0184811
0.0176679
0.016761
0.015776
0.0147286
0.0136351
0.0125124
0.0113775
0.0102464
0.00913436
0.00805491
0.00701994
0.00603952
0.005122
0.00427392
0.00349996
0.00280304
0.00218449
0.00164411
0.00118038
0.000790587
0.000470899
0.000216647
2.24839e-05
-0.000117455
-0.000209415
-0.000259896
-0.000275566
-0.000263189
-0.000229756
-0.000180784
-0.000143629
0.0205847
0.0201793
0.0196233
0.0190058
0.0183036
0.0175039
0.0166159
0.0156542
0.0146334
0.0135684
0.0124747
0.0113681
0.010264
0.00917662
0.00811905
0.00710287
0.00613805
0.00523285
0.0043938
0.00362569
0.00293163
0.00231317
0.00177036
0.00130195
0.000905481
0.000577414
0.000313366
0.000108259
-4.35328e-05
-0.000148043
-0.000211585
-0.00024063
-0.000241666
-0.000221135
-0.000183185
-0.000151579
0.0205061
0.0200881
0.0195234
0.0189138
0.0182285
0.017448
0.0165805
0.0156411
0.0146438
0.0136025
0.0125323
0.0114481
0.0103648
0.00929633
0.00825533
0.00725317
0.0062997
0.00540312
0.00456994
0.003805
0.00311157
0.00249144
0.00194494
0.00147101
0.00106738
0.000730753
0.000456967
0.000241141
7.78194e-05
-3.88987e-05
-0.000115234
-0.00015761
-0.000172513
-0.000166465
-0.000144044
-0.000129934
0.0205148
0.0199916
0.0193529
0.0187225
0.0180394
0.017269
0.0164168
0.0154969
0.0145213
0.0135027
0.0124549
0.0113924
0.0103295
0.00927959
0.00825522
0.00726756
0.00632634
0.00543973
0.00461428
0.0038549
0.00316503
0.00254656
0.00199994
0.0015243
0.00111755
0.000776585
0.000497427
0.000275348
0.000105011
-1.94102e-05
-0.000104113
-0.00015555
-0.000180227
-0.000184454
-0.000171214
-0.000162937
0.020855
0.0202164
0.0195114
0.0188536
0.018151
0.0173654
0.0165047
0.0155822
0.014608
0.0135933
0.0125511
0.0114951
0.010439
0.00939562
0.00837719
0.00739461
0.00645743
0.00557372
0.00474997
0.0039912
0.0033008
0.00268067
0.00213134
0.001652
0.00124066
0.000894319
0.000609072
0.000380266
0.000202603
7.02426e-05
-2.3123e-05
-8.42361e-05
-0.000120256
-0.000138992
-0.000146308
-0.00018067
0.0204533
0.0197936
0.0191823
0.0186043
0.0179469
0.0171897
0.0163509
0.0154465
0.0144878
0.0134865
0.0124562
0.0114109
0.0103644
0.00932972
0.00831904
0.00734331
0.0064121
0.00553352
0.00471409
0.00395885
0.00327125
0.00265327
0.00210547
0.0016271
0.00121624
0.000869961
0.00058441
0.000354975
0.000176381
4.27773e-05
-5.22172e-05
-0.00011554
-0.000154806
-0.000178955
-0.000196141
-0.00026771
0.019852
0.0193072
0.0187619
0.0182111
0.0175726
0.0168298
0.0159989
0.0150967
0.0141366
0.0131319
0.0120973
0.0110478
0.00999797
0.00896161
0.00795139
0.00697862
0.00605312
0.00518308
0.00437496
0.0036335
0.00296179
0.00236136
0.00183239
0.00137373
0.000983091
0.000657156
0.000391777
0.000182108
2.27362e-05
-9.22172e-05
-0.000169012
-0.000214252
-0.000234865
-0.000238412