/*--------------------------------*- C++ -*----------------------------------*\
  =========                 |
  \\      /  F ield         | OpenFOAM: The Open Source CFD Toolbox
   \\    /   O peration     | Website:  https://openfoam.org
    \\  /    A nd           | Version:  10
     \\/     M anipulation  |
\*---------------------------------------------------------------------------*/
FoamFile
{
    format      ascii;
    class       volVectorField;
    location    "68";
    object      U;
}
// * * * * * * * * * * * * * * * * * * * * * * * * * * * * * * * * * * * * * //

dimensions      [0 1 -1 0 0 0 0];

internalField   nonuniform List<vector> 
127913
(
(0.498034 0.00324798 0.00323189)
(0.496559 0.00288156 0.00284962)
(0.49487 0.00260749 0.00256017)
(0.493248 0.00241206 0.0023501)
(0.49183 0.00226073 0.00218505)
(0.490593 0.00213635 0.00204815)
(0.48949 0.00203223 0.00193297)
(0.488492 0.0019446 0.00183593)
(0.487577 0.00187067 0.0017544)
(0.486718 0.00180841 0.00168645)
(0.48589 0.00175633 0.00163064)
(0.485064 0.00171326 0.00158579)
(0.484214 0.00167814 0.00155078)
(0.483317 0.00165001 0.00152452)
(0.482351 0.00162792 0.00150593)
(0.481296 0.00161096 0.00149392)
(0.480136 0.00159821 0.00148741)
(0.478858 0.00158882 0.00148536)
(0.477451 0.00158194 0.00148675)
(0.47591 0.00157678 0.00149056)
(0.474229 0.00157257 0.00149586)
(0.472409 0.00156865 0.00150173)
(0.47045 0.0015644 0.00150736)
(0.468358 0.00155929 0.00151201)
(0.466138 0.00155285 0.00151505)
(0.463798 0.00154469 0.00151595)
(0.461349 0.00153446 0.00151423)
(0.458801 0.00152187 0.00150949)
(0.456167 0.00150665 0.00150137)
(0.453461 0.00148851 0.00148951)
(0.450697 0.00146709 0.0014735)
(0.447893 0.00144185 0.00145276)
(0.445069 0.00141182 0.0014263)
(0.442244 0.00137531 0.00139241)
(0.439503 0.00132663 0.00134546)
(0.436073 0.00125408 0.00127412)
(0.499319 -2.26908e-05 0.00324395)
(0.499217 -0.000179416 0.0028735)
(0.498997 -0.000308895 0.00259602)
(0.49879 -0.000387589 0.00239779)
(0.49873 -0.000442235 0.00224452)
(0.498819 -0.000485268 0.00211943)
(0.499022 -0.000516467 0.00201611)
(0.499315 -0.000533645 0.00193091)
(0.499673 -0.000535603 0.00186114)
(0.500072 -0.000521789 0.00180477)
(0.500485 -0.000492038 0.0017603)
(0.500884 -0.00044663 0.00172645)
(0.501243 -0.000386316 0.00170206)
(0.501537 -0.00031228 0.001686)
(0.501745 -0.000225998 0.00167715)
(0.501847 -0.000129209 0.0016744)
(0.501826 -2.38198e-05 0.00167665)
(0.501669 8.81908e-05 0.00168286)
(0.501366 0.000204858 0.001692)
(0.500909 0.000324297 0.0017031)
(0.500295 0.000444667 0.00171521)
(0.499523 0.000564228 0.00172744)
(0.498594 0.000681372 0.00173898)
(0.497512 0.000794654 0.00174909)
(0.496283 0.000902795 0.00175716)
(0.494915 0.00100467 0.00176264)
(0.493417 0.00109929 0.00176508)
(0.491801 0.00118578 0.00176409)
(0.490077 0.0012633 0.00175931)
(0.48826 0.00133101 0.00175042)
(0.486364 0.00138788 0.00173701)
(0.484403 0.00143245 0.00171849)
(0.482398 0.00146231 0.0016938)
(0.480365 0.00147303 0.00166082)
(0.478374 0.00145664 0.00161275)
(0.475854 0.00138278 0.00152155)
(0.499221 0.000349994 0.00324577)
(0.498967 0.000472631 0.00287579)
(0.498697 0.000452016 0.0025987)
(0.498501 0.000380396 0.00240089)
(0.498477 0.000289138 0.00224801)
(0.498627 0.000190777 0.00212341)
(0.498917 9.73825e-05 0.0020208)
(0.499317 1.90561e-05 0.00193669)
(0.499802 -3.77424e-05 0.00186845)
(0.500343 -6.94319e-05 0.00181411)
(0.500912 -7.43318e-05 0.0017722)
(0.501481 -5.21726e-05 0.00174146)
(0.502021 -3.82091e-06 0.00172071)
(0.502509 6.89578e-05 0.00170879)
(0.50292 0.000163686 0.00170451)
(0.503235 0.000277455 0.00170669)
(0.503437 0.000407069 0.00171417)
(0.503512 0.000549179 0.00172583)
(0.503451 0.000700401 0.0017406)
(0.503247 0.000857094 0.0017574)
(0.502895 0.00101624 0.00177527)
(0.502394 0.00117497 0.00179331)
(0.501746 0.00133064 0.00181067)
(0.500954 0.00148086 0.0018266)
(0.500024 0.00162354 0.00184045)
(0.498964 0.00175683 0.00185165)
(0.497782 0.00187917 0.00185974)
(0.496489 0.00198917 0.00186429)
(0.495097 0.0020856 0.00186495)
(0.493616 0.00216725 0.00186135)
(0.492062 0.00223285 0.00185305)
(0.490446 0.00228082 0.0018394)
(0.488785 0.00230902 0.00181917)
(0.487093 0.00231429 0.00178976)
(0.485422 0.00229263 0.00174358)
(0.483264 0.00223121 0.00164535)
(0.499115 -6.03852e-05 0.00323702)
(0.498685 -0.00023602 0.00285704)
(0.498325 -0.000491985 0.00256955)
(0.498116 -0.000759349 0.00236158)
(0.49811 -0.00100687 0.00219914)
(0.49829 -0.00122503 0.00206581)
(0.49862 -0.00140765 0.00195553)
(0.499068 -0.00154934 0.00186493)
(0.499604 -0.00164693 0.00179141)
(0.500197 -0.00169947 0.00173302)
(0.500819 -0.00170763 0.00168823)
(0.501439 -0.00167329 0.00165572)
(0.502029 -0.00159928 0.00163419)
(0.502564 -0.00148923 0.00162232)
(0.503019 -0.00134734 0.0016188)
(0.503376 -0.00117823 0.00162232)
(0.503618 -0.00098676 0.00163159)
(0.503732 -0.000777846 0.00164537)
(0.503707 -0.00055634 0.0016625)
(0.503537 -0.000326539 0.00168189)
(0.503219 -9.28994e-05 0.0017025)
(0.502752 0.000140577 0.00172338)
(0.502137 0.000370264 0.00174363)
(0.501381 0.000592906 0.00176244)
(0.500487 0.00080563 0.00177911)
(0.499465 0.00100596 0.00179305)
(0.498325 0.00119178 0.00180375)
(0.497075 0.0013613 0.0018108)
(0.495729 0.00151298 0.00181381)
(0.494299 0.00164548 0.00181242)
(0.492796 0.00175755 0.0018062)
(0.491236 0.00184792 0.00179445)
(0.489634 0.00191537 0.00177593)
(0.488004 0.00195877 0.00174797)
(0.486403 0.00197812 0.00170322)
(0.484384 0.00197402 0.00160555)
(0.499102 -0.000230425 0.00322916)
(0.498648 -0.000480368 0.00284195)
(0.498283 -0.000751725 0.0025482)
(0.498093 -0.00102088 0.00233513)
(0.498117 -0.00126958 0.00216881)
(0.498331 -0.00148864 0.00203282)
(0.498698 -0.00167136 0.0019211)
(0.499185 -0.00181166 0.00183023)
(0.499761 -0.00190512 0.00175761)
(0.500396 -0.00194961 0.00170126)
(0.501058 -0.0019449 0.00165958)
(0.501717 -0.00189235 0.00163112)
(0.502342 -0.00179461 0.00161446)
(0.502908 -0.00165536 0.00160811)
(0.503391 -0.00147917 0.0016106)
(0.50377 -0.00127133 0.00162045)
(0.50403 -0.00103752 0.00163625)
(0.504156 -0.000783565 0.00165662)
(0.504139 -0.00051526 0.00168029)
(0.503972 -0.000238232 0.00170608)
(0.503653 4.22188e-05 0.00173286)
(0.503181 0.000321156 0.00175954)
(0.502559 0.00059395 0.00178513)
(0.501791 0.000856799 0.0018088)
(0.500885 0.00110639 0.00182984)
(0.499848 0.00133989 0.00184765)
(0.498691 0.00155492 0.00186173)
(0.497425 0.00174951 0.00187166)
(0.496062 0.00192206 0.00187709)
(0.494614 0.00207128 0.00187766)
(0.493094 0.00219613 0.00187295)
(0.491516 0.00229575 0.00186229)
(0.489896 0.00236958 0.00184443)
(0.488248 0.00241747 0.00181668)
(0.486626 0.00244016 0.00177157)
(0.484566 0.00244049 0.00167351)
(0.499094 -0.000373572 0.00321848)
(0.498621 -0.00075202 0.00282063)
(0.498242 -0.00113822 0.0025164)
(0.498055 -0.00151708 0.00229332)
(0.498099 -0.00187037 0.00211768)
(0.498345 -0.00218428 0.0019733)
(0.498754 -0.0024489 0.00185429)
(0.499291 -0.00265688 0.00175727)
(0.499923 -0.0028035 0.00167942)
(0.500618 -0.00288665 0.00161913)
(0.501339 -0.00290659 0.00157515)
(0.502054 -0.0028656 0.00154622)
(0.502732 -0.00276759 0.00153087)
(0.503344 -0.00261765 0.00152712)
(0.503868 -0.00242167 0.00153291)
(0.504282 -0.00218615 0.0015466)
(0.50457 -0.00191817 0.00156662)
(0.504717 -0.00162501 0.00159146)
(0.504715 -0.00131379 0.00161968)
(0.504557 -0.000991323 0.00165001)
(0.504241 -0.000663968 0.00168123)
(0.503766 -0.000337611 0.00171223)
(0.503137 -1.72743e-05 0.00174197)
(0.502358 0.000292454 0.00176955)
(0.501437 0.000587593 0.00179423)
(0.500383 0.000864723 0.00181536)
(0.499206 0.001121 0.00183242)
(0.497918 0.0013541 0.00184498)
(0.496531 0.00156222 0.00185266)
(0.495058 0.00174395 0.00185511)
(0.493513 0.00189827 0.00185193)
(0.491909 0.00202453 0.00184246)
(0.490263 0.00212248 0.00182546)
(0.488591 0.00219246 0.0017983)
(0.486953 0.00223564 0.00175372)
(0.484898 0.00225588 0.0016564)
(0.499094 -0.000483293 0.00320568)
(0.498625 -0.000960252 0.00279538)
(0.498259 -0.00142616 0.00247942)
(0.498101 -0.00186726 0.00224574)
(0.498188 -0.00226832 0.00206093)
(0.498489 -0.00261695 0.00190887)
(0.498961 -0.00290433 0.00178332)
(0.499568 -0.00312443 0.00168106)
(0.500273 -0.00327361 0.00160011)
(0.501039 -0.00335061 0.00153891)
(0.501831 -0.00335649 0.00149608)
(0.502612 -0.00329436 0.00147024)
(0.503351 -0.00316903 0.00145984)
(0.504017 -0.00298665 0.00146311)
(0.504584 -0.00275421 0.00147766)
(0.505034 -0.00247903 0.0015006)
(0.505349 -0.00216869 0.00152999)
(0.505517 -0.00183118 0.00156418)
(0.505527 -0.00147453 0.00160166)
(0.505374 -0.00110643 0.00164102)
(0.505056 -0.000734029 0.00168099)
(0.504575 -0.000363839 0.00172038)
(0.503933 -1.77623e-06 0.00175808)
(0.503136 0.000346893 0.00179304)
(0.502194 0.000677754 0.00182443)
(0.501115 0.000987199 0.00185161)
(0.499911 0.00127226 0.00187403)
(0.498593 0.00153059 0.00189125)
(0.497175 0.0017604 0.00190293)
(0.49567 0.00196041 0.00190874)
(0.494091 0.00212978 0.00190828)
(0.492454 0.00226808 0.00190096)
(0.490774 0.00237528 0.00188555)
(0.489068 0.00245174 0.00185946)
(0.487394 0.00249808 0.00181531)
(0.485277 0.00251676 0.00171827)
(0.499097 -0.000570406 0.00319071)
(0.498638 -0.00112968 0.00276578)
(0.498294 -0.00166923 0.00243595)
(0.49817 -0.00217525 0.0021895)
(0.498304 -0.00263403 0.00199306)
(0.498664 -0.00303378 0.00183005)
(0.499204 -0.00336538 0.00169493)
(0.499884 -0.00362226 0.00158527)
(0.500666 -0.00380045 0.00149915)
(0.50151 -0.00389866 0.00143497)
(0.502379 -0.00391813 0.00139126)
(0.503233 -0.00386234 0.00136652)
(0.504039 -0.00373658 0.00135906)
(0.504766 -0.00354761 0.00136696)
(0.505387 -0.00330337 0.00138802)
(0.505878 -0.00301236 0.00141943)
(0.506225 -0.00268286 0.00145784)
(0.506416 -0.00232325 0.0015008)
(0.506441 -0.00194223 0.00154674)
(0.506295 -0.00154833 0.00159421)
(0.505978 -0.00114946 0.0016419)
(0.50549 -0.000752724 0.00168856)
(0.504836 -0.000364503 0.00173303)
(0.504022 9.70737e-06 0.00177425)
(0.503059 0.000365261 0.00181132)
(0.501955 0.000698246 0.00184357)
(0.500723 0.00100546 0.00187046)
(0.499376 0.00128436 0.00189155)
(0.497927 0.00153307 0.0019065)
(0.496389 0.00175025 0.001915)
(0.494777 0.00193507 0.00191669)
(0.493107 0.00208713 0.00191099)
(0.491394 0.00220648 0.00189674)
(0.489657 0.00229353 0.0018714)
(0.487955 0.00234906 0.00182775)
(0.485817 0.00237611 0.00173128)
(0.499102 -0.000635135 0.00317372)
(0.498658 -0.00125598 0.00273221)
(0.498344 -0.00185088 0.00238669)
(0.498264 -0.00240448 0.00212567)
(0.498457 -0.00290305 0.00191545)
(0.498887 -0.00333492 0.00174011)
(0.499506 -0.00369073 0.00159509)
(0.500271 -0.00396389 0.00147816)
(0.501141 -0.00415085 0.00138744)
(0.502073 -0.00425096 0.00132128)
(0.503027 -0.00426617 0.00127812)
(0.503963 -0.0042007 0.00125625)
(0.504844 -0.00406058 0.0012538)
(0.505637 -0.00385331 0.0012686)
(0.506315 -0.00358746 0.00129826)
(0.506855 -0.00327236 0.00134009)
(0.507236 -0.0029175 0.00139059)
(0.507452 -0.0025317 0.00144578)
(0.507492 -0.00212369 0.00150341)
(0.507354 -0.00170249 0.00156207)
(0.507036 -0.00127656 0.00162042)
(0.50654 -0.00085348 0.0016772)
(0.505872 -0.000439962 0.00173121)
(0.505039 -4.18961e-05 0.00178132)
(0.504051 0.000335673 0.00182656)
(0.50292 0.000688651 0.00186618)
(0.501657 0.00101378 0.00189963)
(0.500277 0.00130853 0.00192647)
(0.498792 0.00157106 0.00194638)
(0.497219 0.00180011 0.00195907)
(0.49557 0.00199497 0.00196424)
(0.493863 0.00215536 0.00196134)
(0.492113 0.00228137 0.00194924)
(0.490339 0.00237338 0.00192548)
(0.488599 0.00243173 0.00188276)
(0.486401 0.00245853 0.00178704)
(0.499107 -0.000677008 0.00315494)
(0.498683 -0.00133793 0.0026951)
(0.498403 -0.00196922 0.00233215)
(0.498373 -0.0025546 0.00205469)
(0.49863 -0.00308042 0.00182871)
(0.499134 -0.00353509 0.00163991)
(0.499837 -0.00390931 0.00148406)
(0.500691 -0.00419676 0.00135908)
(0.501652 -0.00439425 0.00126317)
(0.502676 -0.00450157 0.0011946)
(0.503718 -0.00452111 0.00115165)
(0.504737 -0.00445748 0.00113244)
(0.505694 -0.00431707 0.0011348)
(0.506556 -0.0041077 0.00115631)
(0.507293 -0.00383821 0.00119433)
(0.507881 -0.00351816 0.00124596)
(0.508302 -0.00315756 0.00130796)
(0.508541 -0.00276594 0.001376)
(0.508597 -0.00235206 0.00144578)
(0.508466 -0.00192468 0.00151576)
(0.508146 -0.00149252 0.00158468)
(0.507641 -0.00106346 0.00165132)
(0.506958 -0.000644355 0.00171447)
(0.506106 -0.000241159 0.00177296)
(0.505093 0.000141148 0.00182578)
(0.503934 0.000498472 0.00187215)
(0.50264 0.000827548 0.00191151)
(0.501226 0.00112587 0.00194343)
(0.499707 0.00139162 0.00196762)
(0.498097 0.0016236 0.00198384)
(0.496413 0.00182113 0.00199181)
(0.494669 0.001984 0.00199104)
(0.492883 0.00211234 0.00198047)
(0.491073 0.00220658 0.00195772)
(0.489301 0.00226728 0.00191558)
(0.487069 0.0022971 0.00182045)
(0.499113 -0.000694488 0.00313472)
(0.498709 -0.00137202 0.00265515)
(0.498468 -0.00201806 0.00227327)
(0.498492 -0.00261586 0.00197715)
(0.498816 -0.00315172 0.00173451)
(0.499399 -0.00361401 0.00153155)
(0.500189 -0.0039936 0.00136439)
(0.501135 -0.00428443 0.00123117)
(0.502191 -0.00448369 0.00113011)
(0.503309 -0.00459155 0.00105943)
(0.504442 -0.00461079 0.00101721)
(0.505546 -0.00454632 0.00100132)
(0.506582 -0.00440477 0.00100935)
(0.507514 -0.00419413 0.00103857)
(0.508311 -0.00392333 0.001086)
(0.50895 -0.00360196 0.00114849)
(0.50941 -0.00323997 0.00122259)
(0.509679 -0.00284744 0.0013041)
(0.50975 -0.00243325 0.00138805)
(0.509626 -0.00200567 0.00147118)
(0.509304 -0.00157334 0.00155232)
(0.508791 -0.0011442 0.00163034)
(0.508093 -0.000725127 0.00170407)
(0.50722 -0.000322035 0.00177233)
(0.506182 6.00648e-05 0.00183407)
(0.504994 0.00041703 0.00188846)
(0.503669 0.000745651 0.00193491)
(0.502221 0.00104349 0.00197304)
(0.500666 0.0013088 0.00200255)
(0.49902 0.00154045 0.00202326)
(0.497299 0.00173786 0.00203493)
(0.495518 0.00190084 0.00203713)
(0.493695 0.00202956 0.00202886)
(0.491849 0.00212442 0.0020078)
(0.49004 0.00218572 0.00196675)
(0.487754 0.00221544 0.00187256)
(0.499119 -0.000686006 0.00311361)
(0.498737 -0.00135502 0.00261345)
(0.498534 -0.00199242 0.00221179)
(0.498613 -0.00258163 0.00189623)
(0.499005 -0.00310909 0.00163626)
(0.499668 -0.00356352 0.00141863)
(0.500544 -0.00393623 0.00123982)
(0.501583 -0.00422165 0.00109816)
(0.502733 -0.0044174 0.000991894)
(0.503943 -0.00452406 0.000919106)
(0.505165 -0.00454469 0.000877677)
(0.506353 -0.00448432 0.000865216)
(0.507465 -0.00434959 0.000879006)
(0.508465 -0.00414829 0.000916017)
(0.509321 -0.00388911 0.000972951)
(0.510008 -0.00358131 0.00104632)
(0.510507 -0.00323444 0.00113249)
(0.510804 -0.00285824 0.00122745)
(0.51089 -0.00246169 0.00132584)
(0.510771 -0.00205279 0.00142247)
(0.510448 -0.00163939 0.00151598)
(0.509926 -0.00122914 0.0016054)
(0.509213 -0.000828735 0.00168965)
(0.50832 -0.000443846 0.00176753)
(0.507258 -7.92601e-05 0.00183799)
(0.506041 0.000261168 0.00190015)
(0.504685 0.000574389 0.00195342)
(0.503204 0.000858123 0.0019974)
(0.501615 0.00111076 0.00203187)
(0.499934 0.00133129 0.00205667)
(0.498177 0.00151918 0.00207161)
(0.496361 0.00167434 0.00207632)
(0.494504 0.00179697 0.00206988)
(0.492623 0.00188751 0.00205004)
(0.490781 0.00194645 0.00200971)
(0.488455 0.00197604 0.00191619)
(0.499125 -0.000650425 0.00309235)
(0.498763 -0.00128464 0.00257132)
(0.498599 -0.0018887 0.0021488)
(0.498732 -0.00244684 0.00181383)
(0.49919 -0.0029461 0.00153658)
(0.499929 -0.00337588 0.00130437)
(0.50089 -0.00372817 0.00111405)
(0.502017 -0.00399794 0.000964146)
(0.503257 -0.00418326 0.000852892)
(0.504556 -0.004285 0.000778206)
(0.505863 -0.0043063 0.000737731)
(0.50713 -0.00425208 0.000728805)
(0.508315 -0.00412864 0.000748423)
(0.509379 -0.00394328 0.000793241)
(0.510291 -0.00370406 0.000859641)
(0.511025 -0.00341953 0.000943821)
(0.51156 -0.00309849 0.00104185)
(0.511884 -0.00274984 0.00114955)
(0.511988 -0.00238238 0.0012616)
(0.511875 -0.00200362 0.00137215)
(0.51155 -0.0016204 0.00147833)
(0.51102 -0.00123986 0.00157933)
(0.510292 -0.000868276 0.00167421)
(0.50938 -0.000510946 0.0017618)
(0.508294 -0.000172301 0.00184107)
(0.507051 0.000144037 0.00191112)
(0.505666 0.000435196 0.00197135)
(0.504155 0.000699064 0.00202139)
(0.502534 0.000934157 0.00206104)
(0.50082 0.00113954 0.0020902)
(0.49903 0.00131476 0.00210873)
(0.497181 0.00145972 0.00211632)
(0.49529 0.00157462 0.0021121)
(0.493377 0.00165986 0.00209392)
(0.491503 0.00171576 0.00205471)
(0.489135 0.001744 0.0019622)
(0.499131 -0.000587528 0.00307191)
(0.498788 -0.00116044 0.00253082)
(0.498659 -0.00170614 0.0020882)
(0.498841 -0.00221032 0.00173454)
(0.499362 -0.00266126 0.0014407)
(0.500171 -0.00304945 0.00119451)
(0.50121 -0.00336779 0.000993224)
(0.502418 -0.00361195 0.000835525)
(0.50374 -0.00378048 0.000719607)
(0.50512 -0.00387444 0.000643198)
(0.506504 -0.0038969 0.000603687)
(0.507844 -0.00385247 0.000598142)
(0.509094 -0.00374685 0.000623288)
(0.510217 -0.00358656 0.000675512)
(0.51118 -0.00337869 0.000750912)
(0.511956 -0.00313073 0.000845403)
(0.512525 -0.0028504 0.000954787)
(0.512874 -0.00254552 0.00107469)
(0.512994 -0.00222396 0.00119994)
(0.512886 -0.00189239 0.00132414)
(0.51256 -0.00155674 0.00144275)
(0.512022 -0.00122324 0.00155505)
(0.511282 -0.000897509 0.0016603)
(0.510352 -0.00058421 0.00175737)
(0.509245 -0.000287232 0.00184521)
(0.507979 -9.76744e-06 0.00192292)
(0.506567 0.000245668 0.00198986)
(0.505028 0.000477205 0.00204569)
(0.503378 0.000683555 0.00209023)
(0.501635 0.000863911 0.00212342)
(0.499815 0.00101787 0.00214519)
(0.497936 0.00114538 0.00215528)
(0.496017 0.00124662 0.00215289)
(0.494074 0.00132197 0.00213593)
(0.492172 0.00137184 0.00209744)
(0.489767 0.00139783 0.0020056)
(0.499135 -0.000498427 0.0030534)
(0.498809 -0.000984559 0.00249415)
(0.498711 -0.00144778 0.00203329)
(0.498937 -0.00187596 0.00166267)
(0.499511 -0.00225919 0.00135378)
(0.500383 -0.00258945 0.00109496)
(0.501489 -0.00286079 0.0008838)
(0.502768 -0.00306972 0.000719138)
(0.504161 -0.0032152 0.000599086)
(0.505611 -0.00329832 0.000521155)
(0.507061 -0.00332188 0.00048246)
(0.508463 -0.00328985 0.000479793)
(0.50977 -0.00320705 0.000509622)
(0.510943 -0.00307888 0.000568087)
(0.511949 -0.00291113 0.000651054)
(0.512762 -0.00270987 0.00075421)
(0.51336 -0.00248138 0.000873138)
(0.51373 -0.00223203 0.00100329)
(0.513865 -0.00196827 0.00113969)
(0.513761 -0.00169584 0.0012756)
(0.513434 -0.00141971 0.00140493)
(0.51289 -0.00114482 0.00152689)
(0.512139 -0.000875846 0.00164092)
(0.511194 -0.000616711 0.00174602)
(0.51007 -0.000370681 0.00184112)
(0.508783 -0.000140454 0.00192535)
(0.50735 7.18503e-05 0.00199808)
(0.505788 0.000264581 0.00205896)
(0.504114 0.00043663 0.00210785)
(0.502346 0.000587301 0.00214474)
(0.500501 0.000716239 0.00216959)
(0.498598 0.000823368 0.00218218)
(0.496654 0.000908821 0.00218178)
(0.494687 0.000972867 0.00216636)
(0.492762 0.00101577 0.00212899)
(0.490327 0.00103858 0.00203815)
(0.499139 -0.000385946 0.00303801)
(0.498826 -0.000762536 0.00246366)
(0.498753 -0.00112171 0.00198758)
(0.499014 -0.00145419 0.00160282)
(0.499631 -0.00175238 0.00128138)
(0.500553 -0.00201016 0.00101206)
(0.501713 -0.002223 0.000792752)
(0.503049 -0.00238832 0.000622397)
(0.5045 -0.00250545 0.00049903)
(0.506005 -0.00257541 0.000419968)
(0.507509 -0.00260049 0.00038209)
(0.508959 -0.00258385 0.000381956)
(0.510311 -0.0025292 0.000415831)
(0.511525 -0.00244059 0.000479682)
(0.512566 -0.00232225 0.000569216)
(0.513408 -0.00217857 0.000679962)
(0.514031 -0.00201408 0.000807327)
(0.514419 -0.00183339 0.000946568)
(0.514566 -0.0016412 0.00109258)
(0.514469 -0.00144204 0.00123847)
(0.514142 -0.00123968 0.00137764)
(0.513593 -0.00103747 0.0015085)
(0.512834 -0.000838923 0.00163064)
(0.511878 -0.00064705 0.00174312)
(0.51074 -0.000464367 0.00184486)
(0.509438 -0.000292931 0.00193499)
(0.507987 -0.00013441 0.00201292)
(0.506406 9.97117e-06 0.00207828)
(0.504713 0.000139299 0.00213094)
(0.502925 0.000252934 0.0021709)
(0.501061 0.000350549 0.00219817)
(0.499137 0.000432031 0.00221259)
(0.497173 0.000497435 0.00221347)
(0.495186 0.000546932 0.00219887)
(0.493242 0.00058074 0.00216191)
(0.490781 0.000599652 0.00207146)
(0.499142 -0.000254741 0.00302685)
(0.498838 -0.000503532 0.00244154)
(0.498782 -0.000741329 0.0019544)
(0.499068 -0.000962235 0.00155933)
(0.499716 -0.00116143 0.00122876)
(0.500673 -0.00133497 0.000951813)
(0.501872 -0.00147998 0.000726604)
(0.503248 -0.00159483 0.000552139)
(0.504739 -0.00167914 0.000426359)
(0.506283 -0.00173366 0.000346381)
(0.507823 -0.00175995 0.000308849)
(0.509308 -0.00176015 0.000310097)
(0.510691 -0.00173663 0.000346199)
(0.511932 -0.00169192 0.000412987)
(0.512998 -0.0016285 0.000506085)
(0.513861 -0.00154891 0.000620965)
(0.514501 -0.00145571 0.000752962)
(0.514902 -0.00135162 0.000897245)
(0.515059 -0.0012394 0.00104864)
(0.514968 -0.00112187 0.00120045)
(0.51464 -0.00100131 0.00134581)
(0.514089 -0.000879686 0.00148218)
(0.513325 -0.000759215 0.00160924)
(0.512362 -0.000641857 0.00172621)
(0.511216 -0.000529269 0.00183208)
(0.509903 -0.000422827 0.00192596)
(0.508441 -0.000323647 0.00200726)
(0.506848 -0.000232638 0.00207567)
(0.505142 -0.000150489 0.00213107)
(0.503342 -7.76429e-05 0.00217345)
(0.501464 -1.44158e-05 0.00220283)
(0.499527 3.90165e-05 0.00221907)
(0.497551 8.25872e-05 0.00222148)
(0.495551 0.000116306 0.00220815)
(0.493595 0.000140189 0.00217221)
(0.49112 0.000154586 0.00208264)
(0.499143 -0.000111165 0.00302079)
(0.498844 -0.000220104 0.00242954)
(0.498798 -0.000325132 0.00193638)
(0.499097 -0.000424119 0.00153569)
(0.499761 -0.000515291 0.00120014)
(0.500737 -0.000597163 0.000919039)
(0.501956 -0.00066861 0.000690662)
(0.503353 -0.000728975 0.000514072)
(0.504866 -0.000778103 0.000387184)
(0.50643 -0.0008163 0.000307016)
(0.50799 -0.000844235 0.000270078)
(0.509493 -0.000862791 0.000272559)
(0.510892 -0.000872903 0.000310408)
(0.512148 -0.000875408 0.000379382)
(0.513227 -0.000870987 0.000475077)
(0.514102 -0.000860207 0.000592954)
(0.514751 -0.000843638 0.000728317)
(0.515161 -0.000821938 0.000876265)
(0.515323 -0.000795881 0.00103155)
(0.515236 -0.000766363 0.00118747)
(0.51491 -0.000734041 0.00133692)
(0.51436 -0.000699457 0.00147699)
(0.513594 -0.00066342 0.00160739)
(0.512629 -0.000626717 0.00172741)
(0.511479 -0.000590057 0.00183601)
(0.510161 -0.000554071 0.00193231)
(0.508694 -0.000519314 0.00201571)
(0.507095 -0.000486278 0.0020859)
(0.505383 -0.00045539 0.00214275)
(0.503576 -0.000427017 0.00218628)
(0.501691 -0.000401459 0.00221654)
(0.499747 -0.000378951 0.00223338)
(0.497763 -0.000359676 0.00223615)
(0.495756 -0.000343765 0.00222298)
(0.493792 -0.000331345 0.00218701)
(0.491305 -0.000322244 0.00209738)
(0.499143 3.73138e-05 0.00302029)
(0.498844 7.30776e-05 0.00242855)
(0.498799 0.000105487 0.00193485)
(0.499098 0.000132768 0.00153363)
(0.499762 0.000153517 0.00119756)
(0.500739 0.000166648 0.000915975)
(0.501959 0.000171413 0.000687177)
(0.503358 0.000167426 0.000510247)
(0.504871 0.000154621 0.000383098)
(0.506437 0.000133161 0.000302712)
(0.507997 0.000103362 0.000265517)
(0.5095 6.56774e-05 0.000267593)
(0.5109 2.0753e-05 0.000304795)
(0.512157 -3.04897e-05 0.000372839)
(0.513236 -8.68343e-05 0.000467356)
(0.514113 -0.000146847 0.000583887)
(0.514764 -0.000209016 0.000717825)
(0.515176 -0.00027189 0.000864351)
(0.515342 -0.000334087 0.00101831)
(0.515258 -0.000394558 0.00117323)
(0.514934 -0.000452324 0.00132207)
(0.514385 -0.000506507 0.00146149)
(0.513622 -0.000556516 0.00159126)
(0.512659 -0.00060194 0.00171075)
(0.511511 -0.000642523 0.00181897)
(0.510195 -0.000678137 0.00191503)
(0.508729 -0.000708766 0.00199834)
(0.507131 -0.000734502 0.00206856)
(0.50542 -0.000755522 0.00212556)
(0.503614 -0.00077206 0.00216935)
(0.50173 -0.00078439 0.00219995)
(0.499786 -0.00079281 0.0022172)
(0.497802 -0.000797625 0.00222044)
(0.495796 -0.000799137 0.00220777)
(0.493832 -0.000797656 0.0021723)
(0.491347 -0.000793445 0.002083)
(0.499142 0.000182761 0.00302538)
(0.498838 0.000360239 0.0024386)
(0.498784 0.000527239 0.00194988)
(0.499071 0.000678188 0.00155323)
(0.49972 0.000808601 0.00122111)
(0.50068 0.000914905 0.000942707)
(0.501881 0.000994547 0.000716222)
(0.50326 0.00104614 0.000540731)
(0.504754 0.0010694 0.000414211)
(0.506301 0.001065 0.000333732)
(0.507844 0.00103424 0.000295795)
(0.50933 0.00097894 0.000296518)
(0.510715 0.000901342 0.000331789)
(0.511958 0.000804103 0.000397389)
(0.513028 0.000690263 0.00048906)
(0.513896 0.00056314 0.000602484)
(0.514542 0.000426182 0.000733193)
(0.514952 0.000282808 0.000876488)
(0.515117 0.0001362 0.00102732)
(0.515035 -1.0629e-05 0.00117929)
(0.514716 -0.000155049 0.00132546)
(0.514172 -0.000294754 0.00146255)
(0.513415 -0.000427845 0.00159028)
(0.512459 -0.000552763 0.00170799)
(0.511318 -0.000668313 0.00181468)
(0.51001 -0.000773621 0.00190944)
(0.508552 -0.000868105 0.00199165)
(0.506962 -0.000951448 0.00206096)
(0.505259 -0.00102356 0.00211721)
(0.503459 -0.00108453 0.00216038)
(0.501582 -0.00113459 0.00219049)
(0.499645 -0.00117407 0.00220735)
(0.497668 -0.00120336 0.0022103)
(0.495667 -0.00122289 0.00219737)
(0.493708 -0.00123306 0.00216168)
(0.491227 -0.00123455 0.002072)
(0.499139 0.000317596 0.00303565)
(0.498826 0.000626454 0.00245894)
(0.498755 0.000918326 0.00198033)
(0.499018 0.0011842 0.00159301)
(0.499638 0.00141678 0.00126904)
(0.500563 0.00161023 0.000997289)
(0.501727 0.00176031 0.000775772)
(0.503068 0.00186465 0.00060351)
(0.504523 0.00192271 0.000478565)
(0.506033 0.00193548 0.000398153)
(0.507539 0.00190513 0.000358913)
(0.508993 0.00183469 0.00035707)
(0.510348 0.00172784 0.000388605)
(0.511565 0.00158884 0.000449412)
(0.512612 0.00142238 0.000535383)
(0.513463 0.00123349 0.000642386)
(0.514096 0.00102737 0.000766156)
(0.514498 0.000809238 0.000902206)
(0.514659 0.000584154 0.00104569)
(0.514577 0.000356877 0.00119042)
(0.514261 0.000131472 0.00132974)
(0.513725 -8.85929e-05 0.00146062)
(0.512977 -0.000299964 0.00158276)
(0.512031 -0.000499961 0.00169545)
(0.510903 -0.000686458 0.00179767)
(0.509608 -0.000857829 0.00188853)
(0.508164 -0.00101291 0.0019674)
(0.506589 -0.00115096 0.0020339)
(0.5049 -0.00127159 0.00208785)
(0.503115 -0.00137472 0.00212921)
(0.501252 -0.00146051 0.00215793)
(0.499329 -0.00152931 0.00217382)
(0.497365 -0.00158156 0.00217613)
(0.495377 -0.00161781 0.00216287)
(0.493431 -0.00163856 0.00212707)
(0.49097 -0.00164496 0.00203719)
(0.499136 0.000435218 0.00305033)
(0.49881 0.000858703 0.00248799)
(0.498713 0.00125963 0.00202383)
(0.498942 0.00162609 0.00164985)
(0.499519 0.0019484 0.00133761)
(0.500395 0.00221878 0.00107555)
(0.501507 0.00243151 0.000861399)
(0.502792 0.00258329 0.000694094)
(0.504191 0.00267323 0.000571797)
(0.505647 0.00270253 0.000491926)
(0.507102 0.00267402 0.000451345)
(0.508508 0.00259174 0.000446495)
(0.509819 0.00246067 0.000473556)
(0.510999 0.00228644 0.00052862)
(0.512014 0.00207522 0.000607783)
(0.512839 0.00183354 0.00070713)
(0.513453 0.00156812 0.000822631)
(0.513841 0.00128571 0.000950036)
(0.513995 0.000992899 0.00108471)
(0.513911 0.000695954 0.00122051)
(0.513601 0.000400188 0.00135113)
(0.513073 0.00011026 0.00147426)
(0.512337 -0.00016943 0.00158949)
(0.511406 -0.000435144 0.001696)
(0.510295 -0.000683932 0.00179273)
(0.509019 -0.000913503 0.00187876)
(0.507595 -0.00112217 0.00195346)
(0.506039 -0.00130879 0.0020164)
(0.504371 -0.0014727 0.00206737)
(0.502606 -0.00161365 0.0021063)
(0.500764 -0.0017317 0.00213308)
(0.498861 -0.00182716 0.00214748)
(0.496916 -0.00190054 0.00214869)
(0.494947 -0.0019524 0.00213464)
(0.493018 -0.0019833 0.00209832)
(0.490577 -0.00199476 0.00200783)
(0.499131 0.000530579 0.00306833)
(0.498789 0.00104704 0.00252366)
(0.498661 0.00153657 0.0020772)
(0.498847 0.00198501 0.00171962)
(0.499371 0.00238083 0.00142185)
(0.500186 0.00271467 0.00117183)
(0.501231 0.00297959 0.000966931)
(0.502446 0.00317146 0.000805972)
(0.503775 0.00328895 0.000687176)
(0.505162 0.0033333 0.000608168)
(0.506553 0.00330775 0.000566074)
(0.507898 0.0032171 0.0005576)
(0.509155 0.00306731 0.000579186)
(0.510286 0.00286513 0.000627168)
(0.51126 0.00261791 0.000697881)
(0.512051 0.00233339 0.00078765)
(0.512639 0.00201953 0.000892705)
(0.513009 0.00168434 0.00100906)
(0.513152 0.00133573 0.00113234)
(0.513066 0.00098099 0.0012565)
(0.51276 0.000626436 0.00137576)
(0.512241 0.000277841 0.0014886)
(0.51152 -5.93543e-05 0.00159452)
(0.510606 -0.000380571 0.00169262)
(0.509516 -0.000682135 0.00178179)
(0.508262 -0.00096116 0.00186112)
(0.506862 -0.00121547 0.00192995)
(0.505332 -0.00144355 0.00198784)
(0.503689 -0.00164446 0.00203455)
(0.501951 -0.00181774 0.00206994)
(0.500135 -0.00196334 0.00209388)
(0.498257 -0.00208152 0.00210605)
(0.496337 -0.00217277 0.00210562)
(0.494393 -0.00223771 0.00209041)
(0.492489 -0.00227692 0.00205338)
(0.490082 -0.00229232 0.0019622)
(0.499125 0.000600401 0.00308851)
(0.498764 0.00118501 0.00256363)
(0.498602 0.0017397 0.00213698)
(0.498738 0.00224877 0.0017978)
(0.499201 0.00269939 0.00151631)
(0.499946 0.00308107 0.00127993)
(0.500913 0.00338592 0.00108565)
(0.502048 0.00360903 0.000932102)
(0.503296 0.00374866 0.000817558)
(0.504603 0.0038059 0.000739847)
(0.505917 0.00378416 0.000696382)
(0.507192 0.00368871 0.000684191)
(0.508386 0.00352615 0.000700028)
(0.509461 0.00330406 0.000740528)
(0.510387 0.00303066 0.000802303)
(0.511138 0.00271459 0.000881943)
(0.511695 0.00236476 0.000975941)
(0.512044 0.00199011 0.00108057)
(0.512174 0.0015996 0.00119154)
(0.512083 0.00120108 0.00130307)
(0.511782 0.000801524 0.00141021)
(0.511275 0.000407782 0.00151217)
(0.510569 2.61091e-05 0.00160824)
(0.509676 -0.000338293 0.00169743)
(0.508609 -0.000681166 0.00177862)
(0.507382 -0.000999134 0.00185089)
(0.50601 -0.00128962 0.00191357)
(0.50451 -0.00155077 0.00196619)
(0.502898 -0.00178139 0.00200847)
(0.50119 -0.00198083 0.00204021)
(0.499404 -0.00214892 0.00206124)
(0.497557 -0.00228584 0.00207117)
(0.495666 -0.00239202 0.00206908)
(0.493751 -0.00246807 0.00205275)
(0.491875 -0.00251451 0.002015)
(0.4895 -0.00253341 0.00192311)
(0.499119 0.000643112 0.00310973)
(0.498738 0.00126958 0.00260567)
(0.498537 0.00186459 0.00219985)
(0.49862 0.00241162 0.00188003)